DF-ISE text

Info {
  version   = 1.0
  type      = xyplot
  datasets  = [
    "frequency"
    "v(d)" "v(s)" "v(g)" "v(b)" "a(d,d)"
    "c(d,d)" "a(d,s)" "c(d,s)" "a(d,g)" "c(d,g)"
    "a(d,b)" "c(d,b)" "a(s,d)" "c(s,d)" "a(s,s)"
    "c(s,s)" "a(s,g)" "c(s,g)" "a(s,b)" "c(s,b)"
    "a(g,d)" "c(g,d)" "a(g,s)" "c(g,s)" "a(g,g)"
    "c(g,g)" "a(g,b)" "c(g,b)" "a(b,d)" "c(b,d)"
    "a(b,s)" "c(b,s)" "a(b,g)" "c(b,g)" "a(b,b)"
    "c(b,b)" ]
  functions = [
    Frequency
    Voltage Voltage Voltage Voltage Admittance
    Capacitance Admittance Capacitance Admittance Capacitance
    Admittance Capacitance Admittance Capacitance Admittance
    Capacitance Admittance Capacitance Admittance Capacitance
    Admittance Capacitance Admittance Capacitance Admittance
    Capacitance Admittance Capacitance Admittance Capacitance
    Admittance Capacitance Admittance Capacitance Admittance
    Capacitance ]
}

Data {
      1.00000000000000E+06
      4.28818385475736E-46  -1.04361359880629E-46   9.75000000000000E-01  -3.24730147108418E-48   1.18687863678447E-15
      1.41534718224452E-17  -4.70984677518048E-15  -6.81107173270218E-22  -4.47498440193377E-15  -1.16386331964729E-17
     -2.43325774323072E-13  -2.26356090429844E-18  -4.71471635525576E-15  -6.81090092619646E-22   1.03851880718641E-15
      1.38773117044184E-17  -4.37840794666157E-15  -1.16385358308254E-17  -2.39947342119699E-13  -2.26359047965167E-18
      4.32850168718277E-16  -1.16389888056222E-17   4.32856832938188E-16  -1.16385488002485E-17   0.00000000000000E+00
      5.93088394780834E-17  -8.20811166198295E-15  -3.60312989253309E-17  -1.77478085808308E-15  -2.26366365753989E-18
     -1.77453702801434E-15  -2.26367174582018E-18  -8.42000236987857E-15  -3.60313751311550E-17   0.00000000000000E+00
      4.05596014497747E-17
      1.00000000000000E+06
      3.07642860821225E-38   3.30827474141272E-38   8.35714285714286E-01  -4.19824333083777E-39   1.48359829598058E-15
      1.41718338412811E-17  -8.96019763030757E-15  -2.65131513637728E-21   1.11999150299323E-16  -1.25035395530843E-17
     -5.22587712502637E-15  -1.58078381863319E-18  -8.96948922820388E-15  -2.65127980781134E-21   1.18687863678447E-15
      1.42734511267831E-17  -2.38025215376928E-16  -1.25029371227406E-17  -1.38318500477245E-14  -1.58074776666746E-18
      2.58029996150467E-16  -1.25035174783557E-17   2.58032682264926E-16  -1.25030638062130E-17   0.00000000000000E+00
      5.08299596786543E-17  -5.29014932997534E-15  -2.58233786739650E-17  -1.61747470364789E-15  -1.58092906253044E-18
     -1.61789579919313E-15  -1.58091521640756E-18  -5.35381420883016E-15  -2.58231580525429E-17   0.00000000000000E+00
      2.89839093643886E-17
      1.00000000000000E+06
      5.14264948696227E-40   4.38338599376741E-38   6.96428571428571E-01   1.97160994997528E-38   4.76235053009767E-14
      1.43468204595963E-17  -4.75991253056451E-14  -1.52322499645838E-20   7.85916093398776E-17  -1.35642738921196E-17
     -1.21203430570285E-15  -7.69955753916243E-19  -4.75993259163452E-14  -1.52320494684579E-20   4.68817061529865E-14
      1.44584503840112E-17   1.15084235736316E-16  -1.35636391742940E-17  -7.28199387263184E-16  -7.69913591963419E-19
      6.32383306703226E-17  -1.35641261570654E-17   6.32386460361649E-17  -1.35636484928595E-17   1.48359829598058E-16
      3.67492757104137E-17  -1.32001318703391E-15  -9.62150104965338E-18  -1.45393818055124E-15  -7.70098314229137E-19
     -1.45409623959722E-15  -7.70065669267269E-19  -1.32866906816242E-15  -9.62117146071147E-18   0.00000000000000E+00
      1.11623317609505E-17
      1.00000000000000E+06
      3.19254094812639E-39   1.15058382820923E-38   5.57142857142857E-01   1.99826901466241E-38   1.27055358067777E-12
      1.44463325769601E-17  -1.26732728198505E-12  -2.80768361666987E-20   2.91812030765325E-18  -1.42881689760944E-17
     -1.53646088473230E-15  -4.02637120926237E-19  -1.26732773345516E-12  -2.80765502813722E-20   1.27070194050737E-12
      1.45258447568428E-17   4.34880297186107E-18  -1.42875448147356E-17  -1.54718429870881E-15  -4.02596780359346E-19
      2.85757962222692E-18  -1.42880089764797E-17   2.85750090788046E-18  -1.42874848773736E-17   0.00000000000000E+00
      3.06714242306690E-17  -5.32057660267705E-17  -2.09593037098283E-18  -1.45475609655348E-15  -4.02415342181630E-19
     -1.45475764383488E-15  -4.02380384100143E-19  -5.42150525803215E-17  -2.09634758383572E-18   0.00000000000000E+00
      2.90081574195391E-18
      1.00000000000000E+06
     -1.30240183987513E-33   1.72303929981689E-33   4.17857142857143E-01   1.72047368273694E-35   4.83988337704562E-11
      1.50165439023242E-17  -4.83966350354387E-11  -3.44433390329116E-20   2.39842101905987E-18  -1.47838391212316E-17
     -1.56821734323737E-15  -3.44086030361890E-19  -4.83966353951939E-11  -3.44428666795167E-20   4.83976468918194E-11
      1.51138780415832E-17   3.13253093624097E-18  -1.47831026746202E-17  -1.55537947928275E-15  -3.44047959972048E-19
      4.99550887279091E-20  -1.47839338726953E-17   4.99384692606137E-20  -1.47833494592630E-17   1.48359829598058E-16
      3.09864464619912E-17  -9.82052519457580E-18  -1.41916313144113E-18  -1.53232992454430E-15  -3.43763095290118E-19
     -1.53237697391838E-15  -3.43730122764283E-19  -1.00806307858328E-17  -1.41979392332225E-18   0.00000000000000E+00
      2.10763074322194E-18
      1.00000000000000E+06
      5.47958404611810E-35  -3.37749722359403E-36   2.78571428571429E-01   5.62948272607262E-38   1.83334071975624E-09
      1.56942628150813E-17  -1.83334036219181E-09  -4.08761229080005E-20  -7.87743071295256E-19  -1.53395525329525E-17
     -1.62595927098649E-15  -3.18056349091606E-19  -1.83334036196761E-09  -4.08755779141161E-20   1.83334309351351E-09
      1.57753587098658E-17  -7.00780054443594E-19  -1.53387697196027E-17  -1.62791554613371E-15  -3.18021258300158E-19
     -4.95552180754635E-19  -1.53399356962743E-17  -4.95517052898227E-19  -1.53392780909192E-17   1.48359829598058E-16
      3.19114474254746E-17  -6.47043726914975E-18  -1.23223363980691E-18  -1.61989823151820E-15  -3.17665883393251E-19
     -1.61974020827777E-15  -3.17634228988087E-19  -3.44106486176005E-18  -1.23301401160676E-18   0.00000000000000E+00
      1.86826527903431E-18
      1.00000000000000E+06
     -1.59747220168592E-35   1.11355552243329E-34   1.39285714285714E-01   1.18587802293945E-39   6.62605837059109E-08
      1.64746943553597E-17  -6.62605821719368E-08  -4.67881404858096E-20  -1.01033946487735E-18  -1.60921838337679E-17
     -1.72021848138034E-15  -3.01860354417179E-19  -6.62605821716481E-08  -4.67958743375392E-20   6.62605851895092E-08
      1.63510087449865E-17  -9.95702857162462E-19  -1.60916557855324E-17  -1.72531331585658E-15  -3.01834416464005E-19
     -9.45684727209809E-19  -1.60927703495039E-17  -9.45589116903044E-19  -1.60920127730773E-17   0.00000000000000E+00
      3.32954204787933E-17  -5.00014949890749E-18  -1.11063735578884E-18  -1.71508149685159E-15  -3.01342367415910E-19
     -1.71510577034115E-15  -3.01311721655673E-19  -4.87454192637901E-18  -1.11167667304581E-18   1.48359829598058E-16
      1.71411342408774E-18
      1.00000000000000E+06
      6.70684161081260E-34  -4.61635540287374E-34   5.42101086242752E-20  -2.96242203633617E-39   2.11540262228780E-06
      1.79650954556364E-17  -2.11540261887896E-06   4.44714714943617E-20  -2.10758734708455E-18  -1.76454640015230E-17
     -1.81685947951434E-15  -2.94037569664556E-19  -2.11540261887800E-06   4.44736212508687E-20   2.11540262110093E-06
      1.79639286531122E-17  -2.02562621206669E-18  -1.76445693964299E-17  -1.81801110140671E-15  -2.94007573927771E-19
     -2.03312321859602E-18  -1.76464349469190E-17  -2.03291923628842E-18  -1.76455190704163E-17   0.00000000000000E+00
      3.63029091137846E-17  -3.99742958644860E-18  -1.01095509811561E-18  -1.81588355862834E-15  -2.93254273747020E-19
     -1.81524118608698E-15  -2.93224594651702E-19  -3.48149262264047E-18  -1.01252835507130E-18   0.00000000000000E+00
      1.59883466633065E-18
      1.00000000000000E+06
      5.55155896630346E-35   8.63578796249273E-35  -1.39285714285714E-01   7.94486192743590E-40   3.64544594083788E-05
      2.15890960093246E-17  -3.64544594068435E-05   1.89059590003949E-18  -7.19010891171342E-18  -2.32362554059297E-17
     -1.91824770659869E-15  -3.04823089608550E-19  -3.64544594068427E-05   1.89270172191391E-18   3.64544594088239E-05
      2.16578082512520E-17  -3.02756431004809E-18  -2.32347688709872E-17  -1.91912279626608E-15  -3.04790425565838E-19
     -9.96011698616086E-18  -2.32375318267018E-17  -9.95962943246195E-18  -2.32363661911079E-17   0.00000000000000E+00
      4.73747866255588E-17  -3.12487729283561E-18  -9.00888608016414E-19  -1.91617499143716E-15  -3.03267545713735E-19
     -1.91316240630505E-15  -3.03237903345081E-19  -8.30052756831890E-18  -9.03987283925913E-19   0.00000000000000E+00
      1.51260831665829E-18
      1.00000000000000E+06
     -9.78429014181671E-35   1.17777682336776E-35  -2.78571428571429E-01   7.65424858126022E-39   1.51746625859777E-04
      2.34863789051116E-17  -1.51746625854660E-04   5.93349873156773E-18   7.14874800674638E-18  -3.04546119592227E-17
     -2.00253494050069E-15  -3.48209396724178E-19  -1.51746625854549E-04   6.05591112239635E-18   1.51746625855030E-04
      2.43990007980805E-17   1.18250281407285E-17  -3.04464813217408E-17  -2.01047103437905E-15  -3.48131127752515E-19
     -1.89700766152391E-17  -3.04492847658240E-17  -1.89693276158353E-17  -3.04479509021565E-17   0.00000000000000E+00
      6.16488540031216E-17  -2.19627784323863E-18  -7.51618238214206E-19  -2.20173813441038E-15  -3.44568251381511E-19
     -2.20205144234555E-15  -3.44536681366272E-19  -1.48917654707453E-17  -7.58771229240374E-19   0.00000000000000E+00
      1.44929698771271E-18
      1.00000000000000E+06
      3.94617555655378E-33   8.26438095268934E-33  -4.17857142857143E-01  -1.00251763650774E-36   2.88526834056735E-04
      2.34689688158920E-17  -2.88526834044196E-04   8.57059003694092E-18  -8.36344876428304E-18  -3.42748591437239E-17
     -2.09601412549728E-15  -4.01640180458628E-19  -2.88526834044432E-04   8.66981829173631E-18   2.88526834065191E-04
      2.38433202457526E-17  -4.72128167747226E-17  -3.42700062409381E-17  -2.09639338883579E-15  -4.01599173586701E-19
     -2.07172335006062E-17  -3.42639598705029E-17  -2.07164248396272E-17  -3.42626045862290E-17   0.00000000000000E+00
      6.91322972304910E-17  -1.44198486502035E-18  -6.05731892727387E-19  -1.65248519592488E-15  -3.95996221102671E-19
     -1.61397443778255E-15  -3.95961255151198E-19   6.39544707850639E-18  -6.16831550190296E-19   0.00000000000000E+00
      1.40905142151103E-18
      1.00000000000000E+06
      4.73867702865060E-36   1.10066248846770E-35  -5.57142857142857E-01  -1.90805241673386E-38   4.16815263557691E-04
      2.64473619813273E-17  -4.16815263557761E-04   1.14218931197374E-17  -3.38421867152428E-17  -3.64639318672807E-17
     -2.19706469650336E-15  -4.41596783740806E-19  -4.16815263557860E-04   1.12918236434992E-17   4.16815263558877E-04
      2.61034561070013E-17  -4.19248583932290E-17  -3.64654165483307E-17  -2.19722026909146E-15  -4.41567101703783E-19
     -2.07757727745039E-17  -3.64748970963249E-17  -2.07750358976105E-17  -3.64735985854110E-17   0.00000000000000E+00
      7.34485245535184E-17  -9.69227225617182E-19  -5.00029075938253E-19  -2.79730585951485E-15  -4.36064429095057E-19
     -2.76797950773388E-15  -4.36026380797726E-19  -2.65878711394599E-17  -5.11137535452817E-19  -1.33523846638253E-15
      1.37909533083310E-18
      1.00000000000000E+06
      2.07865590915578E-33   7.55020150287274E-33  -6.96428571428571E-01   5.85013334273596E-37   5.33042262898874E-04
      2.52788767686145E-17  -5.33042262896976E-04   1.24141665540256E-17  -4.86157606770702E-17  -3.79531149044090E-17
     -2.27005728253334E-15  -4.66452254229768E-19  -5.33042262896871E-04   1.25544338374372E-17   5.33042262898874E-04
      2.55713350193416E-17  -5.46134414155902E-17  -3.79496557138889E-17  -2.27192330027306E-15  -4.66406116099575E-19
     -2.04849107474565E-17  -3.79539224000346E-17  -2.04842612333435E-17  -3.79527105453769E-17   0.00000000000000E+00
      7.63378079056226E-17  -6.95330360368022E-19  -4.31174350090547E-19   3.86716635299579E-16  -4.61930515118580E-19
      5.11003209068742E-16  -4.61887618363753E-19   1.16174021184553E-17  -4.40134721255508E-19   0.00000000000000E+00
      1.36729173078181E-18
      1.00000000000000E+06
     -7.26014599651366E-36   4.78137034359484E-35  -8.35714285714286E-01   3.43025143768503E-38   6.38019298029639E-04
      2.53792174076023E-17  -6.38019298028656E-04   1.35900723277870E-17  -1.29895020452359E-17  -3.90341430609333E-17
     -2.34022095360539E-15  -4.82498562149553E-19  -6.38019298028188E-04   1.34186700323252E-17   6.38019298031123E-04
      2.50622512981900E-17  -1.85384881603651E-17  -3.90351944377913E-17  -2.33895341527610E-15  -4.82462815299873E-19
     -2.01442804100020E-17  -3.90349568479165E-17  -2.01437219677944E-17  -3.90338368884170E-17   0.00000000000000E+00
      7.84524869992248E-17  -5.21291361305915E-19  -3.83693285571028E-19  -2.07473380532539E-15  -4.79136533300233E-19
     -2.03935276768422E-15  -4.79092628166960E-19  -4.74644218458211E-18  -3.90366901441232E-19   0.00000000000000E+00
      1.34733831221319E-18
      1.00000000000000E+06
     -2.41712963042703E-32   2.66062760943203E-32  -9.75000000000000E-01  -1.82572071441339E-36   7.33148227320164E-04
      2.55646263133002E-17  -7.33148227319825E-04   1.46147829911887E-17  -3.88384275983336E-17  -3.98679841765046E-17
     -2.40631099083801E-15  -4.94108871985019E-19  -7.33148227318315E-04   1.43846051700406E-17   7.33148227320461E-04
      2.51869976365494E-17  -4.97132062067646E-17  -3.98694857880113E-17  -2.40537882644751E-15  -4.94069961309138E-19
     -1.98229172807137E-17  -3.98696233184298E-17  -1.98224387012659E-17  -3.98685919186501E-17   0.00000000000000E+00
      8.00860571180642E-17  -3.96512603210800E-19  -3.47841879909598E-19  -2.70498802474979E-15  -4.91684719026781E-19
     -2.70875286369751E-15  -4.91639654047587E-19  -3.95036345934139E-18  -3.52681305354498E-19   1.48359829598058E-16
      1.33686062559619E-18
}
