DF-ISE text

Info {
  version   = 1.0
  type      = xyplot
  datasets  = [
    "frequency"
    "v(d)" "v(s)" "v(g)" "v(b)" "a(d,d)"
    "c(d,d)" "a(d,s)" "c(d,s)" "a(d,g)" "c(d,g)"
    "a(d,b)" "c(d,b)" "a(s,d)" "c(s,d)" "a(s,s)"
    "c(s,s)" "a(s,g)" "c(s,g)" "a(s,b)" "c(s,b)"
    "a(g,d)" "c(g,d)" "a(g,s)" "c(g,s)" "a(g,g)"
    "c(g,g)" "a(g,b)" "c(g,b)" "a(b,d)" "c(b,d)"
    "a(b,s)" "c(b,s)" "a(b,g)" "c(b,g)" "a(b,b)"
    "c(b,b)" ]
  functions = [
    Frequency
    Voltage Voltage Voltage Voltage Admittance
    Capacitance Admittance Capacitance Admittance Capacitance
    Admittance Capacitance Admittance Capacitance Admittance
    Capacitance Admittance Capacitance Admittance Capacitance
    Admittance Capacitance Admittance Capacitance Admittance
    Capacitance Admittance Capacitance Admittance Capacitance
    Admittance Capacitance Admittance Capacitance Admittance
    Capacitance ]
}

Data {
      1.00000000000000E+06
      9.28058876855002E-46   9.66781987012511E-46   9.75000000000000E-01  -9.81613895161571E-49   3.18973633635826E-14
      1.40607536419675E-17  -1.27681168814988E-17  -7.08436703332240E-22  -7.31280279349257E-16  -1.18053926298145E-17
     -5.60296320813933E-14  -2.06290192204913E-18  -4.04993195283051E-18  -7.08426626349605E-22   2.78916479644350E-14
      1.40415973213038E-17  -5.29616871067113E-16  -1.18049460254056E-17  -4.53389286363598E-14  -2.06289417664897E-18
      3.67528171784444E-16  -1.18048023143349E-17   3.67533298913273E-16  -1.18043567566623E-17   0.00000000000000E+00
      5.95800445314780E-17  -7.64593517373570E-15  -3.59708881675509E-17  -4.08771830518064E-16  -2.06372528192983E-18
     -4.08855420014785E-16  -2.06372779238105E-18  -7.66790971523494E-15  -3.59693603240684E-17   0.00000000000000E+00
      4.00948308353440E-17
      1.00000000000000E+06
      5.36875037343774E-38  -2.13717173192323E-37   8.35714285714286E-01  -5.78041576363225E-37   0.00000000000000E+00
      1.41457213640718E-17   9.92116128987389E-18  -4.12020299301990E-21   2.26146664082513E-16  -1.27731691589861E-17
      5.97696059763199E-16  -1.29570046109561E-18   3.88959224189669E-18  -4.12021638523168E-21   0.00000000000000E+00
      1.41018685660452E-17  -1.71594268549391E-18  -1.27727531920339E-17  -3.99518038209279E-15  -1.29568631226498E-18
      1.83336346656935E-16  -1.27724951581359E-17   1.83338012853205E-16  -1.27720379686455E-17   0.00000000000000E+00
      4.80012980679091E-17  -4.14750656537589E-15  -2.24567663396710E-17  -2.02790701813281E-16  -1.29646239744781E-18
     -2.02797466229568E-16  -1.29644501242796E-18  -4.14868593059857E-15  -2.24553888929680E-17   0.00000000000000E+00
      2.50451040400264E-17
      1.00000000000000E+06
     -2.47382179601286E-38   2.87303058557347E-37   6.96428571428571E-01   3.13711254067150E-38   0.00000000000000E+00
      1.43851717286360E-17  -1.27190937041783E-17  -2.25478438595352E-20   2.08596677612371E-17  -1.38755967389513E-17
      8.41873508154860E-17  -4.76871837766185E-19  -1.33890001371804E-17  -2.25474024081961E-20   0.00000000000000E+00
      1.45634176743095E-17   1.98941545493101E-17  -1.38748942957867E-17   9.17601104749247E-17  -4.76828411912939E-19
      1.11237519523634E-17  -1.38754525629660E-17   1.11237396829014E-17  -1.38749690766834E-17   1.48359829598058E-16
      3.15039466553130E-17  -2.33563843388039E-16  -3.75352508318601E-18  -1.42881334560488E-17  -4.77027321135187E-19
     -1.43270998862503E-17  -4.76994350728049E-19  -2.34578325693264E-16  -3.75321318227519E-18   0.00000000000000E+00
      4.70732395219369E-18
      1.00000000000000E+06
     -1.06414174981667E-39  -4.55501534715432E-41   5.57142857142857E-01  -5.42575891672075E-39   0.00000000000000E+00
      1.47366950830616E-17  -1.74317959124763E-15  -3.03685664454261E-20  -1.66787040551140E-18  -1.43929311872042E-17
      5.95244165702428E-19  -3.48643712070547E-19  -1.74350043702382E-15  -3.03691344695017E-20   0.00000000000000E+00
      1.45532918957722E-17  -1.59625331558135E-18  -1.43926116144954E-17  -4.20347627487191E-18  -3.48620881756092E-19
      2.17753875694125E-19  -1.43931161980977E-17   2.17743761290346E-19  -1.43925811023629E-17   0.00000000000000E+00
      3.03082245883596E-17  -1.03949122996111E-17  -1.52252728781912E-18  -2.12101044463995E-18  -3.48420296470611E-19
     -2.14673920884607E-18  -3.48389491346581E-19  -1.04184079608396E-17  -1.52297320735568E-18   0.00000000000000E+00
      2.21919388978559E-18
      1.00000000000000E+06
      1.19986827101043E-33   1.22509893120161E-33   4.17857142857143E-01   2.18856332482822E-35   2.28622497410608E-13
      1.52996949081769E-17  -2.31360142463209E-13  -3.59514685897690E-20  -2.49599603925762E-19  -1.48657279980658E-17
      2.38521747269997E-18  -3.16522919625495E-19  -2.31360423508537E-13  -3.59533798028040E-20   2.30106095706589E-13
      1.48074284549631E-17  -1.81409059852009E-19  -1.48656899426465E-17  -2.75469642589065E-17  -3.16516017152736E-19
     -3.47980031576020E-19  -1.48660725883961E-17  -3.47946325141625E-19  -1.48654773675100E-17   0.00000000000000E+00
      3.10182285043733E-17  -6.13671733945829E-18  -1.28667854994362E-18  -1.58876600839010E-18  -3.16273344003395E-19
     -1.59488367867456E-18  -3.16244066318271E-19  -6.27097201204711E-18  -1.28718280000415E-18   0.00000000000000E+00
      1.91976059689309E-18
      1.00000000000000E+06
      5.45681282633302E-36   2.95546449746532E-35   2.78571428571429E-01   6.44467562773050E-38   2.97685481686800E-11
      1.57754264646339E-17  -2.97701252726263E-11  -4.19058322259152E-20  -7.71330315496364E-19  -1.54000606430601E-17
      2.00010333341330E-18  -2.96362112241226E-19  -2.97701252369798E-11  -4.19057366306542E-20   2.97681030891912E-11
      1.57958116967686E-17  -7.66233295839290E-19  -1.53993768746401E-17  -4.34277894258936E-18  -2.96332316177586E-19
     -6.85092273049424E-19  -1.54004057155648E-17  -6.85018033058229E-19  -1.53997397022037E-17   0.00000000000000E+00
      3.19541188630684E-17  -4.66224507669796E-18  -1.15397344561173E-18  -1.26435789518081E-18  -2.96066755733787E-19
     -1.26293657524447E-18  -2.96038552189745E-19  -4.70160676718018E-18  -1.15456613537286E-18   0.00000000000000E+00
      1.74690947580261E-18
      1.00000000000000E+06
      3.33723496454543E-34  -1.24699873163662E-33   1.39285714285714E-01   3.68685387702327E-39   3.64138148941129E-09
      1.57664713593300E-17  -3.64137541237019E-09  -4.92379439678649E-20  -8.76865013937961E-19  -1.60775127675093E-17
      1.20460676645069E-16  -2.82614874057118E-19  -3.64137539056595E-09  -4.92194945770418E-20   3.64129603414944E-09
      1.77335516932188E-17   8.14767810741099E-18  -1.60739553378695E-17   5.55508601744381E-16  -2.82504492992568E-19
     -1.00272938744116E-18  -1.60769224037519E-17  -1.00260503615287E-18  -1.60761615334300E-17   0.00000000000000E+00
      3.32079032200244E-17  -3.72162757898105E-18  -1.05481928486416E-18  -1.09288099076507E-18  -2.82205544790214E-19
     -1.09746524603738E-18  -2.82178123204335E-19  -3.74541455140780E-18  -1.05559073505421E-18   0.00000000000000E+00
      1.62003652050103E-18
      1.00000000000000E+06
     -3.58249661148696E-35   3.39525635639763E-33   5.42101086242752E-20  -4.23234584165116E-39   4.01647493319228E-07
      1.76470837718676E-17  -4.01647494557100E-07  -4.56250756941236E-20  -1.47325815086630E-18  -1.72188667049517E-17
     -2.41896301883031E-18  -2.74357058617351E-19  -4.01647494557479E-07  -4.56871552456289E-20   4.01647495692985E-07
      1.74473505422062E-17  -1.32281980128400E-18  -1.72183376046433E-17  -1.17696326491138E-18  -2.74338674059859E-19
     -1.52393043643118E-18  -1.72196665703883E-17  -1.52371913827223E-18  -1.72187536793859E-17   1.48359829598058E-16
      3.54108537265378E-17  -3.04704898834383E-18  -9.72433472973862E-19  -9.82003396103305E-19  -2.73782811836069E-19
     -8.37616159999592E-19  -2.73755893854297E-19  -3.04867720548801E-18  -9.73588184498431E-19   0.00000000000000E+00
      1.52191326998276E-18
      1.00000000000000E+06
     -1.67941304216392E-34   2.07456905208475E-34  -1.39285714285714E-01  -2.80490410227718E-40   2.56877744753779E-05
      2.12209681351582E-17  -2.56877744761143E-05   1.18401289878630E-18  -1.92240429386265E-17  -2.20580260342334E-17
     -1.24502734920499E-18  -2.77435973384202E-19  -2.56877744761272E-05   1.18451547052368E-18   2.56877744768615E-05
      2.12446787904440E-17   3.16155555177316E-18  -2.20567561615667E-17  -1.39799441722694E-18  -2.77407691314369E-19
     -6.91454729071115E-18  -2.20594391957932E-17  -6.91405513306983E-18  -2.20582298201536E-17   0.00000000000000E+00
      4.50027882675437E-17  -2.45602750148509E-18  -8.85119251342450E-19  -1.63542073121452E-17  -2.76287684100161E-19
     -2.36630028607264E-17  -2.76260894625968E-19  -1.07832439235822E-16  -8.87419438838881E-19  -4.46563087090156E-14
      1.44125250554488E-18
      1.00000000000000E+06
      1.97770954610020E-36  -1.53226748012346E-36  -2.78571428571429E-01   1.43400006954504E-43   1.87327069776569E-04
      2.47978064702955E-17  -1.87327069777302E-04   6.58512473525849E-18  -1.29478075275136E-17  -3.14223939653987E-17
      1.30099313968891E-18  -3.13633418467406E-19  -1.87327069777330E-04   6.55054423113343E-18   1.87327069776717E-04
      2.45745562601453E-17  -1.89750079037808E-17  -3.14224413164100E-17  -1.03481434059278E-18  -3.13617912062899E-19
     -1.79660703269373E-17  -3.14236048853024E-17  -1.79652132062761E-17  -3.14221445003255E-17   1.48359829598058E-16
      6.35972942152458E-17  -1.76137536115145E-18  -7.51544837494061E-19   7.37993007357996E-16  -3.10108510968869E-19
      7.57905020596872E-16  -3.10078437274625E-19   1.12342947773609E-17  -7.58569814161433E-19   0.00000000000000E+00
      1.37622479579704E-18
      1.00000000000000E+06
     -9.97504040266300E-37   6.19809789171904E-36  -4.17857142857143E-01   1.35715808140460E-39   3.83767362269247E-04
      2.66654393371513E-17  -3.83767362270960E-04   1.06621589800224E-17  -2.90637568842848E-17  -3.59308007659843E-17
     -4.55010422468877E-18  -3.68247779448580E-19  -3.83767362271870E-04   1.10831299986343E-17   3.83767362268802E-04
      2.79596671252408E-17   1.51779710906419E-17  -3.59188881267744E-17  -5.09963658921052E-18  -3.68133953764156E-19
     -1.98596533229286E-17  -3.59451770428332E-17  -1.98587720998787E-17  -3.59437106437640E-17   0.00000000000000E+00
      7.24938533475336E-17  -1.14942060814615E-18  -6.04966057408868E-19   1.77219237289738E-16  -3.60292914419200E-19
      1.82799345093628E-16  -3.60256751199824E-19   7.84401787932374E-18  -6.20940250862294E-19   0.00000000000000E+00
      1.34152622990692E-18
      1.00000000000000E+06
      1.79124285328594E-34  -1.06278031829240E-34  -5.57142857142857E-01  -3.51009375741963E-38   5.56941702528635E-04
      2.37168631000683E-17  -5.56941702528404E-04   1.16723228398664E-17   3.56339715580437E-17  -3.84248218960601E-17
     -5.55421640176451E-18  -4.13497557887075E-19  -5.56941702530966E-04   1.25566941203579E-17   5.56941702533679E-04
      2.55804816599056E-17  -5.36470614535444E-17  -3.84081165046409E-17  -7.81366315807472E-20  -4.13424100572745E-19
     -2.00486746867058E-17  -3.84151675828268E-17  -2.00479052517055E-17  -3.84138064353019E-17   0.00000000000000E+00
      7.73211103280676E-17  -7.43888131366721E-19  -4.92136523092239E-19   1.16433141130876E-15  -4.04064344059372E-19
      1.18805724640988E-15  -4.04023273621349E-19   1.75383025697532E-17  -5.10914981411351E-19   0.00000000000000E+00
      1.31697179039580E-18
      1.00000000000000E+06
     -4.47515160429766E-33   1.01052580103030E-33  -6.96428571428571E-01   1.41632582022126E-36   7.05828542582018E-04
      2.88039562182184E-17  -7.05828542602421E-04   1.59851844212718E-17  -2.24960942760666E-16  -3.99197655033021E-17
     -2.34510097985787E-18  -4.38232834521082E-19  -7.05828542596587E-04   1.46440424413166E-17   7.05828542601156E-04
      2.65113149794115E-17  -1.27441065545686E-16  -3.99361756982759E-17  -2.74748563255795E-18  -4.38194661613574E-19
     -1.97880793852584E-17  -3.99487540862950E-17  -1.97874477602203E-17  -3.99475258805204E-17   0.00000000000000E+00
      8.03206426450144E-17  -5.28127285011435E-19  -4.24362809550031E-19   2.36504379260979E-16  -4.30589283898969E-19
      2.52427810979223E-16  -4.30544179847280E-19   2.06988038687567E-18  -4.39676675228036E-19   0.00000000000000E+00
      1.30051162781473E-18
      1.00000000000000E+06
      6.81303527120332E-34  -2.65844636282203E-33  -8.35714285714286E-01  -8.40033355957460E-37   8.34793560216053E-04
      2.97088441599282E-17  -8.34793560177427E-04   1.80020117640756E-17   3.03370770232337E-18  -4.09590136134357E-17
     -2.84871265823779E-18  -4.51946643916689E-19  -8.34793560184294E-04   2.43157603234423E-17   8.34793560188755E-04
      3.93420941974203E-17   9.76769887673280E-17  -4.08929020886174E-17   7.91858705884189E-19  -4.51849768303700E-19
     -1.94305512581334E-17  -4.09904206229964E-17  -1.94300443923915E-17  -4.09893253729757E-17   0.00000000000000E+00
      8.23602006709377E-17  -3.97256345026397E-19  -3.80454720357464E-19  -6.74597344620168E-16  -4.46456584647785E-19
     -6.79022652491764E-16  -4.46408606864241E-19  -6.22806313984961E-18  -3.91432071122785E-19   0.00000000000000E+00
      1.28338409617447E-18
      1.00000000000000E+06
      2.23100279987857E-35  -3.97205258119789E-37  -9.75000000000000E-01  -4.23043039053400E-39   9.47820920379097E-04
      2.67416217754400E-17  -9.47820920368215E-04   1.69648548940910E-17   7.30684417735380E-17  -4.17396115575977E-17
     -6.04937482525613E-18  -4.61044835328162E-19  -9.47820920335572E-04   4.60714009672776E-17   9.47820920420045E-04
      6.70712172468965E-17   1.41358231864405E-15  -4.15003530728213E-17  -2.50155633281953E-18  -4.60924445074211E-19
     -1.90794127700073E-17  -4.17485698522467E-17  -1.90790074801600E-17  -4.17476045711007E-17   0.00000000000000E+00
      8.38434243422086E-17  -3.00361589767478E-19  -3.47250783188894E-19  -1.75037188065037E-16  -4.57248786334606E-19
     -1.87063360056968E-16  -4.57198763635334E-19  -1.35592838206892E-18  -3.54840755768078E-19   0.00000000000000E+00
      1.26969996972736E-18
}
