DF-ISE text

Info {
  version   = 1.0
  type      = xyplot
  datasets  = [
    "frequency"
    "v(d)" "v(s)" "v(g)" "v(b)" "a(d,d)"
    "c(d,d)" "a(d,s)" "c(d,s)" "a(d,g)" "c(d,g)"
    "a(d,b)" "c(d,b)" "a(s,d)" "c(s,d)" "a(s,s)"
    "c(s,s)" "a(s,g)" "c(s,g)" "a(s,b)" "c(s,b)"
    "a(g,d)" "c(g,d)" "a(g,s)" "c(g,s)" "a(g,g)"
    "c(g,g)" "a(g,b)" "c(g,b)" "a(b,d)" "c(b,d)"
    "a(b,s)" "c(b,s)" "a(b,g)" "c(b,g)" "a(b,b)"
    "c(b,b)" ]
  functions = [
    Frequency
    Voltage Voltage Voltage Voltage Admittance
    Capacitance Admittance Capacitance Admittance Capacitance
    Admittance Capacitance Admittance Capacitance Admittance
    Capacitance Admittance Capacitance Admittance Capacitance
    Admittance Capacitance Admittance Capacitance Admittance
    Capacitance Admittance Capacitance Admittance Capacitance
    Admittance Capacitance Admittance Capacitance Admittance
    Capacitance ]
}

Data {
      1.00000000000000E+06
     -3.62347192743827E-46  -4.19172738264714E-47  -9.75000000000000E-01   4.13552017317108E-48   0.00000000000000E+00
      1.31899872786726E-17  -9.45858975064333E-17  -4.30749630321728E-21   2.49103238146676E-16  -1.22239034826494E-17
      2.49487233239849E-15  -9.96533359231641E-19  -9.97276107091155E-17  -4.30748498479567E-21   0.00000000000000E+00
      1.32131357971228E-17   8.32063357706721E-17  -1.22238513375185E-17  -5.82625689249261E-16  -9.96483484376222E-19
      1.07052748305087E-16  -1.22240933849720E-17   1.07049464769122E-16  -1.22240617864954E-17   1.48359829598058E-16
      4.23159130149633E-17  -2.55967959777825E-15  -1.78677581110890E-17  -1.48872338220312E-16  -9.96308041573430E-19
     -1.48672588613972E-16  -9.96260733774658E-19  -2.52327758900471E-15  -1.78681751995419E-17   0.00000000000000E+00
      1.98613269003352E-17
      1.00000000000000E+06
     -5.51837752463558E-39   4.48660049956206E-39  -8.35714285714286E-01   6.61562846520766E-38   0.00000000000000E+00
      1.34453378868318E-17  -5.65838007864181E-16  -1.51892625632674E-20   1.52890672825333E-17  -1.30069895002462E-17
     -3.48258709344165E-17  -4.54342022092606E-19  -5.65764463847388E-16  -1.51890748330879E-20   0.00000000000000E+00
      1.35827879035741E-17   2.06678622538822E-17  -1.30068299671725E-17  -8.92598830954684E-18  -4.54297575842908E-19
      1.15681886873934E-17  -1.30069339766060E-17   1.15674745560897E-17  -1.30069025371428E-17   0.00000000000000E+00
      3.03167247880252E-17  -2.62381429887841E-16  -4.30288827388652E-18  -4.78221104309395E-17  -4.54364411484935E-19
     -4.78332460030379E-17  -4.54324807127485E-19  -2.64528726616508E-16  -4.30281503541394E-18   0.00000000000000E+00
      5.21240503694826E-18
      1.00000000000000E+06
      1.09747308710135E-35   3.58285249892468E-35  -6.96428571428571E-01   8.85929761838643E-36   1.30556650046291E-14
      1.37127824061566E-17  -1.67097496628964E-14  -2.12309468916666E-20   1.16833869895439E-18  -1.34418652999946E-17
     -3.96002133213172E-17  -3.21776122443498E-19  -1.67097682088236E-14  -2.12308476905728E-20   1.02368282422660E-14
      1.37581065873452E-17   3.13471466956480E-19  -1.34417893331663E-17  -3.82765146432859E-17  -3.21739725704237E-19
      2.93569062510009E-19  -1.34418583171351E-17   2.93279909004027E-19  -1.34418289016902E-17   0.00000000000000E+00
      2.85101223282251E-17  -1.60079149095053E-17  -1.62643510930764E-18  -3.73764521460639E-17  -3.21710857077921E-19
     -3.73883012136783E-17  -3.21676304327573E-19  -1.59574954929557E-17  -1.62656185547240E-18   0.00000000000000E+00
      2.26981201696056E-18
      1.00000000000000E+06
     -1.02832791894598E-34   2.46820324509736E-34  -5.57142857142857E-01   1.58480809726570E-35   6.69992990464832E-13
      1.39351485344814E-17  -6.70036350435652E-13  -2.55317795645542E-20  -1.31971321789301E-18  -1.38094515616290E-17
     -7.65324587550820E-17  -2.85157462846228E-19  -6.70036265667615E-13  -2.55314795622717E-20   6.70586429783224E-13
      1.40440827853118E-17  -8.35792200924668E-19  -1.38093158012032E-17  -6.74662787743639E-17  -2.85120938389139E-19
     -5.41162290356430E-19  -1.38093650317640E-17  -5.41412764802623E-19  -1.38093390721941E-17   0.00000000000000E+00
      2.88951969243850E-17  -6.69883900459401E-18  -1.27649282576470E-18  -3.82032548721859E-17  -2.85061899189948E-19
     -3.80645572494385E-17  -2.85029382676990E-19  -3.50907326841768E-18  -1.27667229272426E-18   1.48359829598058E-16
      1.84675030913604E-18
      1.00000000000000E+06
     -1.32650706708991E-34  -1.08136104631785E-34  -4.17857142857143E-01   1.67594374778668E-36   2.71446562224088E-11
      1.43842218849283E-17  -2.71438878211084E-11  -2.97154229243521E-20  -9.21329037273929E-19  -1.41963955230505E-17
     -6.55982459173032E-17  -2.64503301307574E-19  -2.71438878380261E-11  -2.97148851060614E-20   2.71448045822384E-11
      1.45463395953564E-17  -9.11101653250497E-19  -1.41962078708930E-17  -5.24723392180461E-17  -2.64466613778573E-19
     -8.80706673393769E-19  -1.41963934426475E-17  -8.80949392141000E-19  -1.41963711041055E-17   0.00000000000000E+00
      2.95211784107904E-17  -4.86106904990625E-18  -1.12841386803805E-18  -4.09964111723968E-17  -2.64388243762682E-19
     -4.10415163641486E-17  -2.64356947308921E-19  -4.73975384177450E-18  -1.12863829395865E-18   0.00000000000000E+00
      1.65688516434769E-18
      1.00000000000000E+06
     -8.77754259750055E-37   3.79612065949618E-36  -2.78571428571429E-01   6.63448138763377E-39   1.07832419454706E-09
      1.49145206753612E-17  -1.07832450944632E-09  -3.43421930947291E-20  -1.08057643132874E-18  -1.46443127662280E-17
     -4.97083990555818E-17  -2.50526549504815E-19  -1.07832450933073E-09  -3.43420207512087E-20   1.07832552978552E-09
      1.49478837446035E-17  -1.16334912411454E-18  -1.46442565503967E-17  -4.91594377710883E-17  -2.50494786193862E-19
     -1.15103981753478E-18  -1.46444425606116E-17  -1.15128216452847E-18  -1.46444243450163E-17   1.48359829598058E-16
      3.03157518514122E-17  -3.84332375303469E-18  -1.02688494864853E-18  -4.36210824869974E-17  -2.50378938326118E-19
     -4.36159755344479E-17  -2.50348320228929E-19  -3.72045652860460E-18  -1.02717941798999E-18   0.00000000000000E+00
      1.52778625104855E-18
      1.00000000000000E+06
     -7.64226405665248E-36  -7.49541183677482E-36  -1.39285714285714E-01   5.22683015234668E-41   4.12646924763309E-08
      1.56523459916663E-17  -4.12646922755706E-08  -3.94020464756652E-20  -1.93586566360433E-18  -1.52359746504246E-17
     -5.25859227551290E-17  -2.41201004235239E-19  -4.12646922756058E-08  -3.93921381346575E-20   4.12646930697702E-08
      1.58889076127868E-17  -9.05459712357862E-19  -1.52356452463808E-17  -4.99711201048701E-17  -2.41165418363405E-19
     -1.43939827340516E-18  -1.52363987410900E-17  -1.43964707091992E-18  -1.52363865956433E-17   0.00000000000000E+00
      3.14188414892772E-17  -3.13896608421061E-18  -9.46056155996556E-19  -4.63854290992986E-17  -2.40996781715367E-19
     -4.65158496355693E-17  -2.40966518869151E-19  -2.50660009025160E-18  -9.46470653659347E-19   0.00000000000000E+00
      1.42931467280880E-18
      1.00000000000000E+06
     -2.20349122238015E-35   4.66563160224519E-35  -5.42101086242752E-20   4.36890983656701E-41   1.45223327824772E-06
      1.55009799757788E-17  -1.45223328138817E-06  -1.05218687543427E-20  -4.13193795328391E-18  -1.63018396979548E-17
     -4.32769157910802E-17  -2.36752599171787E-19  -1.45223328138447E-06  -1.11597212013326E-20   1.45223328566572E-06
      1.50171388932739E-17  -3.56655571563592E-18  -1.63026140972819E-17  -4.27491172585168E-17  -2.36731701857434E-19
     -1.96175168251404E-18  -1.62995752850281E-17  -1.96201848464945E-18  -1.62995739083432E-17   0.00000000000000E+00
      3.34738112701741E-17  -2.59854386526646E-18  -8.74662063719021E-19  -4.94252601095188E-17  -2.36392231128960E-19
     -4.94400119181727E-17  -2.36362482129529E-19  -2.55114917133305E-18  -8.75306912814516E-19   0.00000000000000E+00
      1.34905731418411E-18
      1.00000000000000E+06
     -3.34370956363710E-35   2.82740929672857E-35   1.39285714285714E-01  -7.25888583951873E-40   3.46343233828563E-05
      1.83107367267114E-17  -3.46343233843397E-05   1.05847082897525E-18  -1.30979627492907E-17  -1.99872217417648E-17
     -4.55674911650511E-17  -2.43208176762826E-19  -3.46343233843277E-05   1.08403588049765E-18   3.46343233838948E-05
      1.91524699723320E-17  -5.36662567256981E-18  -1.99833457835823E-17  -5.12547716669650E-17  -2.43144204532055E-19
     -5.00517271667555E-18  -1.99839924239485E-17  -5.00548653905895E-18  -1.99839990983381E-17   0.00000000000000E+00
      4.07648151856876E-17  -2.11865034989212E-18  -7.96823687045926E-19  -2.75082088312844E-17  -2.42565226818420E-19
     -2.36712757410861E-17  -2.42535756382838E-19  -4.91122885969049E-19  -7.98046512307314E-19   0.00000000000000E+00
      1.28158242030728E-18
      1.00000000000000E+06
      1.69688813452782E-34  -3.88767139808830E-34   2.78571428571429E-01   9.44539699290209E-40   2.04751100928083E-04
      2.64931558352644E-17  -2.04751100944926E-04   6.78716234620568E-18  -7.24451250211485E-17  -2.73378852719693E-17
     -2.93410771470094E-17  -2.79472371595873E-19  -2.04751100944117E-04   5.97221835115630E-18   2.04751100939507E-04
      2.23113253544978E-17   7.57645988731086E-18  -2.73763274270092E-17  -4.86309474619927E-17  -2.79658429270356E-19
     -1.25720229263527E-17  -2.73826657072212E-17  -1.25723472700423E-17  -2.73825901149531E-17   0.00000000000000E+00
      5.54422837679771E-17  -1.54799838211589E-18  -6.77027952755783E-19  -1.31195898385613E-15  -2.78310677146850E-19
     -1.45677722599500E-15  -2.78280354222065E-19  -1.55631453347595E-16  -6.80056114470520E-19  -5.50414967808797E-14
      1.18262112523256E-18
      1.00000000000000E+06
      1.13133012326686E-36   7.48876607026484E-37   4.17857142857143E-01   1.98838387397024E-40   4.08941451048622E-04
      2.64140260369880E-17  -4.08941451082574E-04   1.14073952707896E-17  -1.34884959032752E-16  -3.14799865378152E-17
     -5.44757391387031E-17  -3.34694409860224E-19  -4.08941451077970E-04   1.05091582233211E-17   4.08941451078294E-04
      2.42415243147984E-17   3.10087252939536E-17  -3.15013790903250E-17  -5.46097151815090E-17  -3.34760870138679E-19
     -1.55581021894268E-17  -3.15246170217478E-17  -1.55582996617932E-17  -3.15243659396781E-17   0.00000000000000E+00
      6.35879579940957E-17  -9.95563997900299E-19  -5.38975905731806E-19   5.25579142263958E-15  -3.32544908671225E-19
      4.80086979389292E-15  -3.32501399749712E-19   6.14385547363512E-17  -5.43620377077719E-19   0.00000000000000E+00
      1.22928771735956E-18
      1.00000000000000E+06
      2.07429607838956E-34   5.63405979365618E-36   5.57142857142857E-01   5.13641996093404E-38   5.74439377204732E-04
      2.56582685556511E-17  -5.74439377171531E-04   1.38828493608500E-17  -1.01783092511001E-16  -3.35353174241084E-17
     -6.40512026499102E-17  -3.73539191726122E-19  -5.74439377024518E-04   1.56705784775934E-17   5.74439377507386E-04
      2.87939327996250E-17   2.87726134316802E-15  -3.35056660616548E-17  -9.50276045431422E-17  -3.73355146621539E-19
     -1.63384419248401E-17  -3.35694042210104E-17  -1.63385027602070E-17  -3.35689756584714E-17   0.00000000000000E+00
      6.75806360755750E-17  -6.54169678625664E-19  -4.42255976413830E-19   4.11963029283520E-15  -3.71522559498763E-19
      3.96323884416275E-15  -3.71473540563802E-19   7.71252803557574E-17  -4.46557259528241E-19   0.00000000000000E+00
      1.19204919224758E-18
      1.00000000000000E+06
     -1.13705822899015E-33   7.77415160925073E-34   6.96428571428571E-01   1.51614492710059E-36   7.06530231293919E-04
      2.12253111840909E-17  -7.06530231337929E-04   1.26122964444796E-17  -2.07779977248376E-16  -3.48100587804106E-17
     -6.60041648921941E-17  -3.95287518154258E-19  -7.06530231322565E-04   1.27380207847060E-17   7.06530231322701E-04
      2.13993605071704E-17  -7.44187289486844E-18  -3.48079925354093E-17  -6.35042921105051E-17  -3.95228199113479E-19
     -1.65417934348974E-17  -3.48052637723495E-17  -1.65417368931003E-17  -3.48046767475873E-17   0.00000000000000E+00
      6.99925441555621E-17  -4.61697478059946E-19  -3.82603360675502E-19  -7.02882803777248E-15  -3.93643115118242E-19
     -7.31752847726208E-15  -3.93588779736111E-19  -8.53852339231918E-17  -3.85837056887603E-19   0.00000000000000E+00
      1.17463654190175E-18
      1.00000000000000E+06
     -3.09923464208248E-35   1.21766458362483E-35   8.35714285714286E-01   6.08221342910111E-38   8.14896041186386E-04
      1.07217195692344E-17  -8.14896041184523E-04   5.33403470192094E-18   3.41567513171324E-16  -3.57690895757622E-17
     -6.63446306745311E-17  -4.08698140925933E-19  -8.14896041130841E-04   2.33243037168877E-17   8.14896041262791E-04
      3.39793813792636E-17   7.24108439042117E-16  -3.56030757633211E-17  -6.34564021111406E-17  -4.08009842404235E-19
     -1.66094483280476E-17  -3.56896432110094E-17  -1.66092853436927E-17  -3.56888991150940E-17   0.00000000000000E+00
      7.17204447032396E-17  -3.37059469598548E-19  -3.41904348077060E-19  -2.15387201166193E-14  -4.07256575385865E-19
     -2.16383227260730E-14  -4.07199073953878E-19  -1.91070404043146E-16  -3.44235901206138E-19   0.00000000000000E+00
      1.14981423512965E-18
      1.00000000000000E+06
     -7.48819354726740E-32   3.22358524969221E-32   9.75000000000000E-01  -1.95879337923555E-35   9.06123365030257E-04
      1.99453189692594E-17  -9.06123365158053E-04   1.30451616410572E-17  -6.19400280750084E-16  -3.64071622583143E-17
     -7.03753475117730E-17  -4.17731746322435E-19  -9.06123364996976E-04   1.56334050104248E-17   9.06123365158885E-04
      2.30560002199185E-17   5.80243095934455E-16  -3.63861841646628E-17  -6.57116676906637E-17  -4.17602152017727E-19
     -1.66548356557545E-17  -3.63944921730549E-17  -1.66545866975332E-17  -3.63936144209314E-17   0.00000000000000E+00
      7.30990685733021E-17  -2.45485686899915E-19  -3.10967952339169E-19  -1.54451344934734E-13  -4.16913572159539E-19
     -1.55861568331667E-13  -4.16854133773920E-19  -1.22960809318283E-15  -3.12650538641476E-19  -4.45079488794175E-16
      1.12819097730226E-18
}
