DF-ISE text

Info {
  version   = 1.0
  type      = xyplot
  datasets  = [
    "frequency"
    "v(d)" "v(s)" "v(g)" "v(b)" "a(d,d)"
    "c(d,d)" "a(d,s)" "c(d,s)" "a(d,g)" "c(d,g)"
    "a(d,b)" "c(d,b)" "a(s,d)" "c(s,d)" "a(s,s)"
    "c(s,s)" "a(s,g)" "c(s,g)" "a(s,b)" "c(s,b)"
    "a(g,d)" "c(g,d)" "a(g,s)" "c(g,s)" "a(g,g)"
    "c(g,g)" "a(g,b)" "c(g,b)" "a(b,d)" "c(b,d)"
    "a(b,s)" "c(b,s)" "a(b,g)" "c(b,g)" "a(b,b)"
    "c(b,b)" ]
  functions = [
    Frequency
    Voltage Voltage Voltage Voltage Admittance
    Capacitance Admittance Capacitance Admittance Capacitance
    Admittance Capacitance Admittance Capacitance Admittance
    Capacitance Admittance Capacitance Admittance Capacitance
    Admittance Capacitance Admittance Capacitance Admittance
    Capacitance Admittance Capacitance Admittance Capacitance
    Admittance Capacitance Admittance Capacitance Admittance
    Capacitance ]
}

Data {
      1.00000000000000E+06
      2.14627606713804E-48   1.16648517172538E-47  -9.75000000000000E-01  -1.11436876159358E-48   0.00000000000000E+00
      1.32173881551771E-17   1.53638931198307E-18  -2.88521485523444E-20   2.69422919787432E-17  -1.26672959042461E-17
      8.67041347157353E-17  -5.12729266308777E-19   1.29270471500489E-18  -2.88519942921161E-20   0.00000000000000E+00
      1.32820373468680E-17   1.97394492803918E-17  -1.26692007585852E-17  -6.90295149146396E-18  -5.12686288309111E-19
      1.84052791237004E-17  -1.26672164161721E-17   1.84026622290754E-17  -1.26691742401791E-17   0.00000000000000E+00
      3.00861720847158E-17  -3.79261272884636E-16  -4.74978150242411E-18  -2.22343279640185E-17  -5.12809778663589E-19
     -2.24259344856883E-17  -5.12767752863855E-19  -3.79899132942758E-16  -4.74951955389866E-18   0.00000000000000E+00
      5.78054008567936E-18
      1.00000000000000E+06
     -4.16048321430040E-33   4.30561300617934E-33  -8.35714285714286E-01   2.44202576778299E-34   0.00000000000000E+00
      1.38727816170575E-17  -8.72506913037205E-20  -4.02020189304123E-20  -3.51859275507573E-18  -1.31100362449396E-17
     -3.66002811265575E-17  -3.17337498214241E-19   1.46139873751883E-19  -4.02027001418241E-20   0.00000000000000E+00
      1.36613640707795E-17  -1.68017801911904E-18  -1.31124135850929E-17  -1.97723387045185E-17  -3.17322704209367E-19
     -2.26592115218123E-20  -1.31103788339025E-17  -2.34386402085769E-20  -1.31126096571931E-17   0.00000000000000E+00
      2.76655404728329E-17  -1.09502409864643E-17  -1.44255197943274E-18  -1.90469158606674E-18  -3.17312623822024E-19
     -1.85317368729079E-18  -3.17294137595111E-19  -1.09537381635108E-17  -1.44262253892749E-18   0.00000000000000E+00
      2.07522630646417E-18
      1.00000000000000E+06
      9.05439922562734E-35   5.08860053609070E-35  -6.96428571428571E-01   4.50003859774397E-36   0.00000000000000E+00
      1.38296652171460E-17  -1.02048119760989E-17  -4.64871855287395E-20  -8.63901240196444E-19  -1.34359011348464E-17
      5.27793252629899E-19  -2.79015222768422E-19  -1.00076162144704E-17  -4.64871299936059E-20   0.00000000000000E+00
      1.38503488441050E-17  -9.77769699776331E-19  -1.34384240384232E-17   5.83207432096019E-18  -2.79000055963387E-19
     -6.70625642828784E-19  -1.34360024132416E-17  -6.71478294551019E-19  -1.34385499139869E-17   1.48359829598058E-16
      2.80198940133828E-17  -4.55736430636899E-18  -1.14534168600318E-18  -1.52897043934796E-18  -2.78966605797971E-19
     -1.82500787173316E-18  -2.78951806418146E-19  -7.01746816892459E-18  -1.14544172600466E-18   0.00000000000000E+00
      1.70309273894803E-18
      1.00000000000000E+06
     -8.57250666564412E-34  -5.47292819862551E-35  -5.57142857142857E-01  -9.63783153123570E-36   0.00000000000000E+00
      1.44646210008740E-17  -1.23381509724492E-15  -5.22562859287499E-20  -1.19124707707099E-18  -1.37668347439988E-17
      2.27773661976917E-18  -2.58391420315789E-19  -1.23356092704357E-15  -5.22580267783929E-20   0.00000000000000E+00
      1.40911893270012E-17  -9.67435645632487E-19  -1.37700378652063E-17   2.62068272948097E-19  -2.58385513503040E-19
     -9.18135626941945E-19  -1.37672135802018E-17  -9.19109036704881E-19  -1.37701020620811E-17   0.00000000000000E+00
      2.85580967317347E-17  -3.39210517327549E-18  -1.02078108953215E-18  -9.12818563967190E-19  -2.58343127893650E-19
     -8.79612567008601E-19  -2.58331046461820E-19  -3.41039592148916E-18  -1.02089044150334E-18   0.00000000000000E+00
      1.53755727594954E-18
      1.00000000000000E+06
     -7.36829359265924E-35  -8.76614938628951E-35  -4.17857142857143E-01   4.85946161598411E-37   1.46727871472480E-13
      1.57109038262911E-17  -1.44036791997224E-13  -5.82548937663161E-20  -9.60425038577945E-20  -1.41193819310667E-17
      2.66387523118350E-17  -2.43978375781599E-19  -1.44038468497215E-13  -5.82624742001009E-20   1.37974641526194E-13
      1.43105187103688E-17  -9.25425447516036E-19  -1.41238194267294E-17  -4.24269911230369E-19  -2.43993933444989E-19
     -1.11046706457644E-18  -1.41206100833456E-17  -1.11155692182701E-18  -1.41237669950829E-17   0.00000000000000E+00
      2.91779324102580E-17  -2.70842383493740E-18  -9.33555330586774E-19  -7.22913600037074E-19  -2.43936791770540E-19
     -7.77854595922585E-19  -2.43927119893195E-19  -2.71784260955216E-18  -9.33684806773774E-19   1.48359829598058E-16
      1.42146677339008E-18
      1.00000000000000E+06
     -2.18872622087582E-36   6.65488319496138E-36  -2.78571428571429E-01   1.75628733499704E-39   1.62860519342973E-11
      1.48744836732912E-17  -1.62842158454783E-11  -6.50685585679861E-20  -1.22819056458031E-18  -1.45216614171407E-17
      1.31195760843132E-18  -2.33459785414556E-19  -1.62842162015935E-11  -6.50692094693993E-20   1.62857552146381E-11
      1.48211503715818E-17  -1.25759757658664E-18  -1.45247877947536E-17   7.96367856094772E-19  -2.33452742641219E-19
     -1.29006450452932E-18  -1.45217977695313E-17  -1.29117626943444E-18  -1.45248693224357E-17   0.00000000000000E+00
      2.99113210960900E-17  -2.23274169111396E-18  -8.64654003459497E-19  -5.95920975783518E-19  -2.33376860202795E-19
     -6.40196613155421E-19  -2.33368775194324E-19  -2.22736076811587E-18  -8.64821255173574E-19   0.00000000000000E+00
      1.33187639491970E-18
      1.00000000000000E+06
     -5.65636603077219E-35  -1.44568059567391E-34  -1.39285714285714E-01  -9.00888065602204E-40   1.75327596395637E-09
      1.50453087286139E-17  -1.75327452000881E-09  -7.38438054580569E-20  -1.79953155404825E-18  -1.50254853544418E-17
     -1.85512691655150E-18  -2.25562057801719E-19  -1.75327452037874E-09  -7.38432774493406E-20   1.75327284839995E-09
      1.51858134872767E-17  -1.51639343884935E-18  -1.50280184358448E-17   1.38868332594282E-18  -2.25551257481952E-19
     -1.49209347681348E-18  -1.50253246029927E-17  -1.49312896214852E-18  -1.50279578487197E-17   0.00000000000000E+00
      3.08587388635186E-17  -1.86384406244215E-18  -8.05456412137444E-19  -1.17674724318948E-17  -2.25433039499067E-19
     -2.05890939422793E-17  -2.25424489880823E-19  -4.40375844806821E-17  -8.05684750258205E-19  -1.64679410853845E-14
      1.26315371893485E-18
      1.00000000000000E+06
      7.80358536799283E-35   9.40158783514266E-34  -5.42101086242752E-20  -6.96367499019084E-40   1.73096359805493E-07
      1.61676823081563E-17  -1.73096359566981E-07  -8.47879392237639E-20  -1.00736552466554E-18  -1.57913027769439E-17
     -1.50060089254255E-18  -2.20651615809438E-19  -1.73096359566029E-07  -8.48250731966737E-20   1.73096360992372E-07
      1.59105491611548E-17  -2.50364926224548E-18  -1.57944933548722E-17  -4.88889119563712E-19  -2.20649674690043E-19
     -1.79244333864765E-18  -1.57915927209746E-17  -1.79363597459058E-18  -1.57943696973409E-17   0.00000000000000E+00
      3.23385682120391E-17  -1.57002154015099E-18  -7.52605793947318E-19  -3.73049314028067E-18  -2.20459778527825E-19
     -4.16164751887801E-18  -2.20451540900154E-19  -1.35921145886689E-17  -7.52992706636514E-19   0.00000000000000E+00
      1.19395744025437E-18
      1.00000000000000E+06
     -5.17790643932123E-35  -2.13929292358376E-34   1.39285714285714E-01   8.64118296359182E-41   1.28020143088557E-05
      1.80194381388690E-17  -1.28020143069948E-05   2.08024906612316E-19   7.16165065953363E-17  -1.79362991628720E-17
     -1.31849989610429E-18  -2.21604758627506E-19  -1.28020143070082E-05   2.16393546405543E-19   1.28020143030697E-05
      1.89195191625682E-17  -7.17359705569191E-17  -1.79375670870881E-17  -3.19650641423013E-18  -2.21566702843147E-19
     -3.00962211039486E-18  -1.79368295812323E-17  -3.01134584151125E-18  -1.79405331658273E-17   0.00000000000000E+00
      3.65781341446150E-17  -1.33113810380091E-18  -7.00771419314478E-19   3.03358032206360E-17  -2.21236447899429E-19
      3.81573055015311E-17  -2.21229057117332E-19  -5.47919941295953E-19  -7.01508936638511E-19   0.00000000000000E+00
      1.14533760490846E-18
      1.00000000000000E+06
     -1.92715738316754E-34   4.04249823969048E-34   2.78571428571429E-01   1.76342353535845E-41   1.86361389395909E-04
     -2.19101253152238E-18  -1.86361389357698E-04   9.46730334426146E-19   4.26302432331728E-18  -2.48088552546220E-17
     -3.54434525843730E-18  -2.43024752601572E-19  -1.86361389345443E-04  -7.64126574127927E-19   1.86361389403475E-04
     -1.40765819758395E-17   5.13085332775520E-16  -2.48852436619625E-17   7.31784579550389E-18  -2.43585241485576E-19
     -8.88203107621027E-18  -2.46935243533653E-17  -8.88446187053764E-18  -2.46979520203477E-17   0.00000000000000E+00
      5.00120414298250E-17  -1.03936462330881E-18  -6.20565249441273E-19  -8.65986901906413E-17  -2.41100705152096E-19
     -6.01148869923623E-17  -2.41091353373068E-19  -1.59499710775091E-18  -6.22553674772485E-19   0.00000000000000E+00
      1.10640063778370E-18
      1.00000000000000E+06
      2.22036802872046E-33   1.20120615877462E-32   4.17857142857143E-01   9.16943810047549E-38   4.47051739639550E-04
      1.89211143791355E-17  -4.47051739621217E-04   7.85314352308519E-18   2.67983465049270E-18  -2.87620674932069E-17
     -3.69817531184054E-18  -2.89686339289207E-19  -4.47051739617652E-04   1.10767859523422E-17   4.47051739652012E-04
      2.72672405626249E-17   1.19936082730383E-16  -2.87140500990023E-17   1.21101336132394E-17  -2.89259753970860E-19
     -1.14960363117198E-17  -2.87544312121725E-17  -1.14989379924081E-17  -2.87592291134020E-17   0.00000000000000E+00
      5.80126113649315E-17  -6.65761511800824E-19  -4.98948603777413E-19  -2.12077323960714E-16  -2.87243604418947E-19
     -4.73216009219614E-16  -2.87231666985819E-19  -6.06771049392129E-18  -5.03669832514498E-19   0.00000000000000E+00
      1.08076769239602E-18
      1.00000000000000E+06
      3.75913967340303E-36   5.30138494118327E-35   5.57142857142857E-01  -8.97368273223230E-39   6.47437471621039E-04
      1.39285012835906E-17  -6.47437471651569E-04   7.04583668946248E-18  -1.69943948277947E-16  -3.06048838631311E-17
     -2.39530760238890E-18  -3.29919093254626E-19  -6.47437471684135E-04   2.27145076813342E-18   6.47437471576085E-04
      5.66265204479590E-18  -2.80978269254453E-16  -3.06576100626545E-17  -2.14936204173761E-18  -3.30257794243407E-19
     -1.21389897102233E-17  -3.05724737464882E-17  -1.21417276576814E-17  -3.05770737783086E-17   0.00000000000000E+00
      6.15500266453473E-17  -3.98093228233208E-19  -4.00480469617485E-19  -4.14901169178355E-15  -3.27195753214773E-19
     -3.66679452667649E-15  -3.27180235544029E-19  -3.18195880332313E-17  -4.05405247705280E-19   0.00000000000000E+00
      1.05721191278339E-18
      1.00000000000000E+06
      9.32747078660882E-35  -9.03791679734131E-35   6.96428571428571E-01  -5.57688900763257E-37   7.99435826766804E-04
      2.19014846901766E-17  -7.99435826788140E-04   1.31527917181045E-17  -7.95390077152866E-17  -3.15892975999570E-17
     -1.59755516818644E-18  -3.49001403894011E-19  -7.99435826739025E-04   5.97380943996404E-17   7.99435826718587E-04
      8.84811324807545E-17  -6.53898639606329E-17  -3.12389595559914E-17  -1.04986265025723E-17  -3.45718785178792E-19
     -1.22784398722538E-17  -3.16008982663723E-17  -1.22808225755585E-17  -3.16050959131963E-17   0.00000000000000E+00
      6.35514809355095E-17  -2.64823992059420E-19  -3.45488977939197E-19  -2.23232368059154E-15  -3.47255846458332E-19
     -1.87820905288629E-15  -3.47235018563139E-19  -1.18025191812654E-17  -3.49170940361511E-19   1.48359829598058E-16
      1.03959443408884E-18
      1.00000000000000E+06
     -1.28355708506952E-32   8.02225814976278E-32   8.35714285714286E-01   2.60539386555660E-35   9.19780152973093E-04
      2.33540247800285E-17  -9.19780152969671E-04   1.53015102477714E-17  -1.17428628287350E-17  -3.23010111860746E-17
     -1.44638288617748E-18  -3.59586661510014E-19  -9.19780152996406E-04  -2.94962696162381E-18   9.19780152957219E-04
      1.11079524666153E-19  -1.04726929581863E-16  -3.24189814812387E-17  -7.12567043569346E-19  -3.60426605898708E-19
     -1.23173205084506E-17  -3.23186955826562E-17  -1.23193835534472E-17  -3.23223804225961E-17   0.00000000000000E+00
      6.49519261797664E-17  -1.87257525758462E-19  -3.10854619512506E-19   4.10927899913846E-15  -3.58403468606601E-19
      3.96169203010527E-15  -3.58377168957401E-19   3.36897185194472E-17  -3.13460253642586E-19   0.00000000000000E+00
      1.03085103541749E-18
      1.00000000000000E+06
     -1.42475794007370E-33   5.09695109990872E-33   9.75000000000000E-01   2.39893087321648E-38   1.01852616725986E-03
      2.37948212702097E-17  -1.01852616728055E-03   1.64475635377813E-17  -1.17091791600786E-16  -3.28724483522476E-17
     -1.37069616049630E-18  -3.67266138035527E-19  -1.01852616722433E-03   8.50300284559357E-18   1.01852616733285E-03
      1.43559057754871E-17   2.33464361411476E-16  -3.29187499065610E-17   6.67149221566914E-19  -3.67500423202166E-19
     -1.23513651489115E-17  -3.28908947895872E-17  -1.23531189579460E-17  -3.28941282119073E-17   0.00000000000000E+00
      6.60701777650131E-17  -1.33243155918431E-19  -2.85161251051783E-19   2.49348814024158E-15  -3.66441745762048E-19
      2.23669913815896E-15  -3.66411026917733E-19   9.20696811684666E-18  -2.87011654539745E-19   0.00000000000000E+00
      1.02153185944726E-18
}
