DF-ISE text

Info {
  version   = 1.0
  type      = xyplot
  datasets  = [
    "frequency"
    "v(d)" "v(s)" "v(g)" "v(b)" "a(d,d)"
    "c(d,d)" "a(d,s)" "c(d,s)" "a(d,g)" "c(d,g)"
    "a(d,b)" "c(d,b)" "a(s,d)" "c(s,d)" "a(s,s)"
    "c(s,s)" "a(s,g)" "c(s,g)" "a(s,b)" "c(s,b)"
    "a(g,d)" "c(g,d)" "a(g,s)" "c(g,s)" "a(g,g)"
    "c(g,g)" "a(g,b)" "c(g,b)" "a(b,d)" "c(b,d)"
    "a(b,s)" "c(b,s)" "a(b,g)" "c(b,g)" "a(b,b)"
    "c(b,b)" ]
  functions = [
    Frequency
    Voltage Voltage Voltage Voltage Admittance
    Capacitance Admittance Capacitance Admittance Capacitance
    Admittance Capacitance Admittance Capacitance Admittance
    Capacitance Admittance Capacitance Admittance Capacitance
    Admittance Capacitance Admittance Capacitance Admittance
    Capacitance Admittance Capacitance Admittance Capacitance
    Admittance Capacitance Admittance Capacitance Admittance
    Capacitance ]
}

Data {
      1.00000000000000E+06
      1.31813724627801E-47   2.30052423565394E-46  -9.75000000000000E-01   2.67248891653666E-48   0.00000000000000E+00
      1.32028609475644E-17  -1.16775118953617E-18  -2.28908214520415E-21  -8.62362039812046E-17  -1.23828330492529E-17
     -2.31096812357378E-15  -7.71388517038086E-19   3.16498496900113E-18  -2.28910571548085E-21   0.00000000000000E+00
      1.30847787712210E-17   1.40263582518897E-16  -1.23829472032110E-17   1.35466958585320E-15  -7.71350283759080E-19
      5.80953264160849E-17  -1.23828960714391E-17   5.80929269479339E-17  -1.23829106041208E-17   1.48359829598058E-16
      4.24577371211382E-17  -1.92822357329738E-15  -1.76919302689014E-17  -6.38361817417682E-17  -7.71367378005144E-19
     -6.41879753711947E-17  -7.71320767203848E-19  -1.95367597535834E-15  -1.76919748037099E-17   0.00000000000000E+00
      1.92347751652972E-17
      1.00000000000000E+06
     -1.47287921354118E-37   9.03091061553514E-38  -8.35714285714286E-01  -1.27711656250041E-37   0.00000000000000E+00
      1.33881897440761E-17   7.61943856836450E-21  -8.11503825539585E-21  -7.03241992120052E-18  -1.30600011848842E-17
     -7.99834507327551E-17  -3.63524036126206E-19   2.06319218077131E-19  -8.11499023483463E-21   0.00000000000000E+00
      1.34587443371313E-17  -6.62812845577466E-19  -1.30599598411002E-17  -2.57652874885547E-17  -3.63485003773846E-19
      1.88057609535792E-18  -1.30599246228486E-17   1.88019831837310E-18  -1.30599438720823E-17   0.00000000000000E+00
      2.89613386268325E-17  -5.95669620953326E-17  -2.84147012248656E-18  -3.86846511808298E-18  -3.63562028214461E-19
     -3.77549948944815E-18  -3.63525403864100E-19  -5.77538784300968E-17  -2.84139706819287E-18   0.00000000000000E+00
      3.56788036963456E-18
      1.00000000000000E+06
      3.20286296855315E-35  -1.81166428676434E-34  -6.96428571428571E-01  -2.94112936961071E-35   0.00000000000000E+00
      1.38739232853884E-17  -6.57868779467296E-19  -1.13576663876202E-20  -1.86206006841773E-18  -1.34413765355209E-17
     -1.08903916115261E-17  -2.95896296783665E-19  -5.56605842052333E-19  -1.13576823932015E-20   0.00000000000000E+00
      1.38651644202767E-17  -2.06077558036397E-18  -1.34414153949773E-17  -1.54458227029748E-17  -2.95865638393024E-19
     -4.67895922963159E-19  -1.34415342033394E-17  -4.68135889043338E-19  -1.34415586048019E-17   1.48359829598058E-16
      2.84633984163184E-17  -7.31151401924653E-18  -1.58030560457432E-18  -9.67286504525415E-19  -2.95851762382602E-19
     -8.69360218488951E-19  -2.95820405836309E-19  -5.24708211531478E-18  -1.58040057038513E-18   0.00000000000000E+00
      2.17217865458750E-18
      1.00000000000000E+06
     -5.26245144115613E-35   2.20283046160809E-33  -5.57142857142857E-01  -9.86382025942857E-35   0.00000000000000E+00
      1.40308990794266E-17  -1.16902203138428E-16  -1.41136390135212E-20  -8.57092548778560E-19  -1.37975024522178E-17
     -7.04497007587207E-18  -2.67827337966283E-19  -1.16814383225597E-16  -1.41135088674853E-20   0.00000000000000E+00
      1.41390853631062E-17  -8.84601189460232E-19  -1.37974417828956E-17  -8.07892161220017E-20  -2.67795721678124E-19
     -8.38540116765320E-19  -1.37975138244247E-17  -8.38764897331186E-19  -1.37975440460090E-17   0.00000000000000E+00
      2.89244920365278E-17  -4.55941739260020E-18  -1.32943416560088E-18  -9.85596579575987E-19  -2.67771369089989E-19
     -1.02916832345850E-18  -2.67742781810183E-19  -5.00691492548381E-18  -1.32954427028314E-18   0.00000000000000E+00
      1.86455427291392E-18
      1.00000000000000E+06
     -4.31216164790547E-34   5.59010713703668E-34  -4.17857142857143E-01   4.21238788920938E-37   1.42425436414136E-14
      1.43552730614782E-17  -1.84477434116340E-14  -1.67619273748305E-20  -1.13444278521004E-18  -1.41642559268820E-17
      9.86872120946040E-19  -2.49909070351222E-19  -1.84477344261178E-14  -1.67616697708037E-20   1.39458239822175E-14
      1.45298732923296E-17  -1.10211882687568E-18  -1.41641506366028E-17  -2.07517625779458E-18  -2.49877763205134E-19
     -1.06739951549518E-18  -1.41642540619547E-17  -1.06762250932692E-18  -1.41642914369007E-17   0.00000000000000E+00
      2.95204477847029E-17  -3.44626508007853E-18  -1.19190228543535E-18  -7.62359122664171E-19  -2.49842877519175E-19
     -7.81783503639407E-19  -2.49816193561652E-19  -3.42572602105944E-18  -1.19203063912631E-18   0.00000000000000E+00
      1.69133183573908E-18
      1.00000000000000E+06
      2.88835667454340E-36  -1.15488247443546E-36  -2.78571428571429E-01   2.41398602164907E-38   2.85726195822901E-12
      1.49830370497478E-17  -2.85911589576570E-12  -1.95330423369863E-20  -1.28891508818200E-18  -1.45735385248031E-17
     -7.73110777997692E-18  -2.37213491732795E-19  -2.85911592327618E-12  -1.95332258995093E-20   2.85904227618418E-12
      1.48957717917533E-17  -1.31746745350703E-18  -1.45736778023462E-17  -8.90111474209792E-18  -2.37191035970253E-19
     -1.26340877445773E-18  -1.45737692531322E-17  -1.26363814241673E-18  -1.45738162059988E-17   0.00000000000000E+00
      3.02404136647495E-17  -2.75970060081911E-18  -1.09282821417902E-18  -6.43002012242114E-19  -2.37135959173029E-19
     -6.75675684126635E-19  -2.37110856096339E-19  -2.77576458178195E-18  -1.09299236149698E-18   0.00000000000000E+00
      1.56731455688101E-18
      1.00000000000000E+06
      2.05715878020603E-34   3.76066100679986E-34  -1.39285714285714E-01  -5.36754991264612E-40   4.29835219583316E-10
      1.54559948113773E-17  -4.29832574810409E-10  -2.27538445022969E-20  -1.65365709383505E-18  -1.50830189414783E-17
     -4.54766319185984E-18  -2.27909539608806E-19  -4.29832574655666E-10  -2.27536043047908E-20   4.29832104026894E-10
      1.55382710846956E-17  -1.36971718413931E-18  -1.50830093904318E-17  -2.51127537164663E-18  -2.27883212831714E-19
     -1.47321628425159E-18  -1.50832841088205E-17  -1.47345606889413E-18  -1.50833443502486E-17   0.00000000000000E+00
      3.11791847923817E-17  -2.26656892000591E-18  -1.01255633319320E-18  -3.74890117659903E-18  -2.27806535875411E-19
     -1.69654728652455E-18  -2.27783861455222E-19  -1.57416863615034E-17  -1.01284276266376E-18   0.00000000000000E+00
      1.43957875390998E-18
      1.00000000000000E+06
     -5.30141386600745E-33  -6.77637948667347E-33  -5.42101086242752E-20   5.95114023102427E-39   6.10772385701158E-08
      1.61524850337570E-17  -6.10772369044241E-08  -2.54734725006773E-20  -2.03269543865876E-18  -1.58538067068019E-17
     -2.94277119413238E-19  -2.21828309255749E-19  -6.10772369046637E-08  -2.54955809340890E-20   6.10772366414381E-08
      1.57468767769405E-17  -1.97413087051528E-18  -1.58545462018148E-17   1.74675684352597E-19  -2.21819326354292E-19
     -1.77537514996611E-18  -1.58540881555559E-17  -1.77563285331112E-18  -1.58541687868145E-17   0.00000000000000E+00
      3.26511252509048E-17  -1.88356497049951E-18  -9.42868308554376E-19  -3.52747897348499E-18  -2.21640637889821E-19
     -3.42244958580635E-18  -2.21617710362390E-19  -1.50631780904027E-17  -9.43248418852503E-19   1.48359829598058E-16
      1.38627768278714E-18
      1.00000000000000E+06
      5.26612966252840E-37   1.24396927394475E-36   1.39285714285714E-01   2.21698939800805E-41   7.11008860778201E-06
      1.86114539223975E-17  -7.11008860750841E-06   2.39021341487022E-19  -3.27949890870539E-18  -1.81658603324633E-17
      2.29867974512168E-18  -2.22034537810518E-19  -7.11008860749734E-06   2.35306441139371E-19   7.11008860822709E-06
      1.79812351632551E-17  -1.09618101827144E-18  -1.81680684893406E-17   4.92431440656150E-19  -2.22040089291382E-19
     -3.19253108996790E-18  -1.81677561480237E-17  -3.19283904710866E-18  -1.81678740184627E-17   0.00000000000000E+00
      3.72133317547103E-17  -1.58380450608576E-18  -8.77701595786817E-19  -1.79154295016713E-17  -2.21688179364203E-19
     -1.73435931767855E-17  -2.21665715021158E-19  -3.99767825144570E-18  -8.78426541527527E-19   0.00000000000000E+00
      1.32603378154229E-18
      1.00000000000000E+06
      2.37735141012532E-35  -1.67148047792562E-35   2.78571428571429E-01  -1.68566695784263E-40   1.60648246299561E-04
      1.94294121147179E-17  -1.60648246313994E-04   4.98694233084033E-18  -1.87626192152592E-16  -2.84502785159473E-17
     -5.18063538760334E-18  -2.49152037362091E-19  -1.60648246314727E-04   4.89116909242749E-18   1.60648246300896E-04
      1.85656762422927E-17   6.09636141808036E-18  -2.84605977081743E-17  -2.60858115064265E-18  -2.49153033064100E-19
     -1.43113612993824E-17  -2.84247203237505E-17  -1.43117622685084E-17  -2.84248216459624E-17   0.00000000000000E+00
      5.76231688213397E-17  -1.20483452024365E-18  -7.73626422248694E-19   4.18964698122418E-16  -2.47876604687981E-19
      5.26794124401358E-16  -2.47850839222029E-19   3.77399168892993E-18  -7.75799282182034E-19   0.00000000000000E+00
      1.27403041940176E-18
      1.00000000000000E+06
      4.56648769545135E-37  -1.09135791627618E-37   4.17857142857143E-01   1.79135526814405E-39   4.22433426170698E-04
      1.80394388864661E-17  -4.22433426127020E-04   8.39368617370277E-18   5.34971415729140E-16  -3.46578778298026E-17
     -1.39337115046273E-18  -3.16383903621690E-19  -4.22433426039749E-04  -8.57993881902610E-18   4.22433426330927E-04
     -2.50438756242176E-17   2.51968564188350E-15  -3.50457259974593E-17   1.53653993124351E-17  -3.18348221911368E-19
     -1.86648637588551E-17  -3.46119800154078E-17  -1.86652602781023E-17  -3.46118655475837E-17   0.00000000000000E+00
      6.98302742144957E-17  -6.97354461419078E-19  -6.06429040497201E-19   8.88702492213899E-16  -3.13159043701878E-19
      1.20978223620522E-15  -3.13122712706258E-19  -1.66798987545007E-18  -6.12336175974904E-19   0.00000000000000E+00
      1.23759894539418E-18
      1.00000000000000E+06
     -9.81439597799916E-35   4.10420467623745E-35   5.57142857142857E-01  -3.92262732067260E-38   6.27284728266326E-04
      1.44575064258746E-17  -6.27284728414983E-04   7.75167657674936E-18  -9.35144126691165E-16  -3.72257014426830E-17
     -6.79386648012311E-18  -3.70307323296168E-19  -6.27284728377290E-04   1.34360307150380E-17   6.27284728290509E-04
      2.37563310298035E-17  -1.60912294615723E-16  -3.71565784490252E-17  -3.61361961210240E-18  -3.69755013062909E-19
     -1.93780263854957E-17  -3.71583871434220E-17  -1.93781537807929E-17  -3.71580179676787E-17   0.00000000000000E+00
      7.47936589158474E-17  -3.59036675649914E-19  -4.77255075672908E-19  -5.91621636391531E-15  -3.66757778475049E-19
     -6.07869769160222E-15  -3.66711100763404E-19  -6.48349529112902E-17  -4.83322610710847E-19   0.00000000000000E+00
      1.21791917313656E-18
      1.00000000000000E+06
      7.47597353855704E-34  -1.88284596141583E-34   6.96428571428571E-01   1.09083442974657E-36   7.83482098215639E-04
      2.45564603073165E-17  -7.83482098153384E-04   1.56019864535873E-17   3.33298259008130E-16  -3.85373067052612E-17
     -6.01228020409919E-19  -3.94455335825568E-19  -7.83482098137206E-04   2.34424880121141E-17   7.83482098222612E-04
      3.56376527655775E-17   4.70492570832475E-16  -3.84649143089229E-17   3.39716464642063E-18  -3.94092547441605E-19
     -1.93946946610355E-17  -3.85437799210186E-17  -1.93945917449890E-17  -3.85431105052233E-17   0.00000000000000E+00
      7.74958497180971E-17  -2.04651190852886E-19  -4.08960322728738E-19  -4.79548172564076E-15  -3.92274482947424E-19
     -5.05406124810197E-15  -3.92220047783791E-19  -5.71578436965728E-17  -4.13359950200209E-19   0.00000000000000E+00
      1.19862890900017E-18
      1.00000000000000E+06
      4.64359324980731E-33   2.59186376262839E-32   8.35714285714286E-01  -5.74774288487047E-36   9.07369170254817E-04
      2.08236707574250E-17  -9.07369170199047E-04   1.36342965351698E-17   2.21101406530214E-16  -3.95109238879461E-17
     -8.67960084852266E-20  -4.07973287197830E-19  -9.07369170233333E-04   2.45588919401691E-17   9.07369170267280E-04
      3.45660987073188E-17  -5.63129539071490E-17  -3.94327846653788E-17  -5.91639734372949E-18  -4.07636302825416E-19
     -1.93398981685671E-17  -3.94964769806166E-17  -1.93397311668792E-17  -3.94955960602759E-17   0.00000000000000E+00
      7.93587765346611E-17  -1.17861709216618E-19  -3.66696394956824E-19  -3.10490823655664E-15  -4.06392299835609E-19
     -3.36344170922750E-15  -4.06332693322502E-19  -5.32707075472614E-17  -3.69737089252599E-19   1.48359829598058E-16
      1.18289149021820E-18
      1.00000000000000E+06
      8.53120763797044E-33  -9.14177797628233E-33   9.75000000000000E-01  -1.19907198343498E-37   1.00917182939294E-03
      3.86450786416658E-17  -1.00917182946284E-03   2.96711281179306E-17  -2.81905764879197E-16  -4.01785786371659E-17
     -1.95727542693421E-18  -4.17498342772981E-19  -1.00917182956051E-03   1.91833430373877E-17   1.00917182931980E-03
      2.66845363329867E-17  -9.53822372244282E-16  -4.02343776978916E-17  -4.53209992899546E-18  -4.17607324520561E-19
     -1.93051584813208E-17  -4.02508670633467E-17  -1.93046405877089E-17  -4.02498108600675E-17   0.00000000000000E+00
      8.08361295209564E-17  -5.78754233672160E-20  -3.35470236789080E-19  -4.91992555090822E-15  -4.16652078610483E-19
     -5.27149460034499E-15  -4.16588899152750E-19  -2.73630087530337E-17  -3.37585311845353E-19   0.00000000000000E+00
      1.17110639001805E-18
}
