DF-ISE text

Info {
  version   = 1.0
  type      = xyplot
  datasets  = [
    "frequency"
    "v(d)" "v(s)" "v(g)" "v(b)" "a(d,d)"
    "c(d,d)" "a(d,s)" "c(d,s)" "a(d,g)" "c(d,g)"
    "a(d,b)" "c(d,b)" "a(s,d)" "c(s,d)" "a(s,s)"
    "c(s,s)" "a(s,g)" "c(s,g)" "a(s,b)" "c(s,b)"
    "a(g,d)" "c(g,d)" "a(g,s)" "c(g,s)" "a(g,g)"
    "c(g,g)" "a(g,b)" "c(g,b)" "a(b,d)" "c(b,d)"
    "a(b,s)" "c(b,s)" "a(b,g)" "c(b,g)" "a(b,b)"
    "c(b,b)" ]
  functions = [
    Frequency
    Voltage Voltage Voltage Voltage Admittance
    Capacitance Admittance Capacitance Admittance Capacitance
    Admittance Capacitance Admittance Capacitance Admittance
    Capacitance Admittance Capacitance Admittance Capacitance
    Admittance Capacitance Admittance Capacitance Admittance
    Capacitance Admittance Capacitance Admittance Capacitance
    Admittance Capacitance Admittance Capacitance Admittance
    Capacitance ]
}

Data {
      1.00000000000000E+06
      1.53581772928606E-46  -1.02144267502162E-46   9.75000000000000E-01   1.90319326007709E-48   0.00000000000000E+00
      1.08443850743354E-17   1.51483878876095E-17  -2.51333287329164E-22   5.62705798982358E-16  -9.45165897042764E-18
      5.95275102287725E-15  -1.38922502460310E-18   1.16171057026600E-18  -2.51337330832928E-22   0.00000000000000E+00
      1.08391889466418E-17  -1.56814476608791E-16  -9.45152490581739E-18  -2.74369073396444E-14  -1.38919489801523E-18
      4.26198232397014E-16  -9.45104296857571E-18   4.26194859846514E-16  -9.45090050451432E-18   0.00000000000000E+00
      6.25851064636222E-17  -1.49760027694686E-14  -4.36831569027648E-17  -4.53878550244646E-16  -1.38984214995503E-18
     -4.53746961684396E-16  -1.38982145844724E-18  -1.50041253458825E-14  -4.36819278213962E-17   1.14237068790505E-14
      4.64611816418293E-17
      1.00000000000000E+06
     -4.78832319916981E-38   2.15860709328732E-37   8.35714285714286E-01   2.60365374997754E-37  -1.75361318584905E-13
      1.10988996590075E-17   2.47701025716622E-18  -5.09248414017711E-22  -2.70028218388015E-16  -1.02181324316467E-17
     -4.69608851733489E-15  -8.72682547484916E-19   8.89642095414277E-20  -5.09240500501270E-22  -1.43315595391724E-13
      1.10390676840843E-17  -3.97251289747104E-16  -1.02180802590063E-17  -1.04486782432941E-14  -8.72650071820061E-19
      2.25733735854668E-16  -1.02173121870733E-17   2.25731061300605E-16  -1.02171648253936E-17   0.00000000000000E+00
      5.16850391294816E-17  -9.57304012219869E-15  -3.12505560249009E-17  -2.39717965948901E-16  -8.73513469284862E-19
     -2.40058196970993E-16  -8.73491946742912E-19  -9.66855581415255E-15  -3.12489188720029E-17   1.33523846638253E-15
      3.29952491582106E-17
      1.00000000000000E+06
     -2.48705437151083E-38   3.21916973211225E-38   6.96428571428571E-01  -4.93491655088309E-37   0.00000000000000E+00
      1.14409098352903E-17   2.37220182506200E-19  -2.40854116243204E-21   3.54663414795376E-17  -1.10416811579594E-17
      1.15687250391062E-16  -3.44781541004231E-19  -2.97155644871078E-20  -2.40855194215380E-21   0.00000000000000E+00
      1.14057807402476E-17   2.14125831521485E-17  -1.10415974070656E-17  -8.19326584034933E-17  -3.44762228416918E-19
      2.77760711382669E-17  -1.10412734244047E-17   2.77753354899583E-17  -1.10411213934601E-17   0.00000000000000E+00
      3.01815867106737E-17  -1.24837267579866E-15  -8.09919193039847E-18  -3.07807409682829E-17  -3.45287687793630E-19
     -3.07820384981933E-17  -3.45266976998344E-19  -1.24853884611902E-15  -8.09818395426026E-18   0.00000000000000E+00
      8.78873069952703E-18
      1.00000000000000E+06
     -6.09268940509386E-38   3.84293889099505E-38   5.57142857142857E-01  -2.14579603202363E-36   0.00000000000000E+00
      1.17835437316800E-17  -9.39105622146697E-17  -5.15827164437872E-21  -1.65718601118065E-18  -1.15822395826804E-17
      4.22303231028511E-18  -2.01681038096378E-19  -9.38222899260054E-17  -5.15827975683320E-21   0.00000000000000E+00
      1.17724745419434E-17  -1.78619389924779E-18  -1.15820965546891E-17  -4.96092159401735E-18  -2.01663460878093E-19
     -1.01363128497814E-19  -1.15823728715940E-17  -1.01447210335487E-19  -1.15822110523933E-17   0.00000000000000E+00
      2.45045017753071E-17  -1.53272674320966E-17  -1.33991785258163E-18  -1.67471852739257E-18  -2.01537829948394E-19
     -1.66554090759190E-18  -2.01520078082254E-19  -1.54306306562555E-17  -1.34020382471409E-18   0.00000000000000E+00
      1.74330053222809E-18
      1.00000000000000E+06
     -1.10053204995643E-32   2.07058662009502E-32   4.17857142857143E-01   1.22951737120322E-35   1.49843427894039E-14
      1.22997366693061E-17  -1.65502989301615E-14  -7.30555156489654E-21  -7.81760826607003E-19  -1.21099197753885E-17
     -6.94654660775588E-18  -1.77905267829175E-19  -1.65502909127590E-14  -7.30554240079181E-21   1.49843427894039E-14
      1.23083700767519E-17  -8.19612708675788E-19  -1.21097303503374E-17  -3.62294594492187E-18  -1.77888687795494E-19
     -8.08469118328647E-19  -1.21101040682373E-17  -8.08509296014459E-19  -1.21099269967440E-17   0.00000000000000E+00
      2.52652720682340E-17  -5.79069528889748E-18  -1.04524100049529E-18  -1.01200937111734E-18  -1.77729226453943E-19
     -1.01488432168696E-18  -1.77712914044830E-19  -5.71847506195509E-18  -1.04559295830065E-18   1.48359829598058E-16
      1.40108130252945E-18
      1.00000000000000E+06
      2.08767739988354E-35   2.21095836372567E-34   2.78571428571429E-01   1.39616453240241E-37   2.87640037624716E-12
      1.28406497197835E-17  -2.87850285208788E-12  -9.47799631548157E-21  -1.00761685765137E-18  -1.27026381333532E-17
      1.02435086935908E-18  -1.64550809755684E-19  -2.87850374993012E-12  -9.47797336313317E-21   2.87714217539515E-12
      1.28537280148844E-17  -1.09075571165148E-18  -1.27024105782499E-17  -4.42541340725753E-19  -1.64535030739832E-19
     -1.18228462441395E-18  -1.27027828287721E-17  -1.18229343035873E-18  -1.27025874462924E-17   1.48359829598058E-16
      2.63241483578178E-17  -4.10501488888885E-18  -9.18778082635551E-19  -7.88696967293956E-19  -1.64337288342829E-19
     -7.88318174088484E-19  -1.64321950550181E-19  -4.10797161717956E-18  -9.19203599217012E-19   0.00000000000000E+00
      1.24785295488090E-18
      1.00000000000000E+06
      4.27847347265689E-32   5.19514234991661E-33   1.39285714285714E-01  -7.24941134708863E-36   4.85492112937368E-10
      1.32822706304214E-17  -4.85481905045256E-10  -1.18482661604360E-20  -2.73018313907839E-18  -1.33840866604443E-17
      2.90531696518556E-18  -1.55987653782556E-19  -4.85481905004153E-10  -1.18468730518755E-20   4.85480837590319E-10
      1.37454462119801E-17  -3.02206746474104E-18  -1.33829941455760E-17   1.06162738494494E-17  -1.55959977980659E-19
     -1.53143343725440E-18  -1.33838527862393E-17  -1.53140906835870E-18  -1.33836352113761E-17   0.00000000000000E+00
      2.75962706655378E-17  -3.11157004893923E-18  -8.28782667688127E-19  -6.41349460829739E-19  -1.55685424616124E-19
     -6.42913166835625E-19  -1.55670765975009E-19  -3.11288954924605E-18  -8.29372237633158E-19   0.00000000000000E+00
      1.14070579226756E-18
      1.00000000000000E+06
     -1.19878508102413E-36  -5.80538824980668E-37   5.42101086242752E-20   3.41425907514648E-43   7.72055765875589E-08
      1.45095524435329E-17  -7.72055774750622E-08  -1.06762615595738E-20  -1.82606595862759E-18  -1.43568195668807E-17
     -6.04072541506314E-19  -1.51131141663995E-19  -7.72055774742840E-08  -1.06728906281385E-20   7.72055771809982E-08
      1.45353998665044E-17  -1.84430114398404E-18  -1.43565036115806E-17  -6.20601153787406E-19  -1.51115822359925E-19
     -2.01659454652210E-18  -1.43572857016021E-17  -2.01652514085224E-18  -1.43570308780770E-17   0.00000000000000E+00
      2.94708317997290E-17  -2.42628833512836E-18  -7.56515225972099E-19  -5.36515599510569E-19  -1.50642218395940E-19
     -5.39208516010220E-19  -1.50627905364807E-19  -2.43061755534588E-18  -7.57492238984250E-19   0.00000000000000E+00
      1.05877094104810E-18
      1.00000000000000E+06
     -2.55574001589853E-34   9.03749185227655E-34  -1.39285714285714E-01   1.04763783838828E-39   9.31795097725490E-06
      1.74918517994708E-17  -9.31795097787031E-06   6.42489015038362E-19  -9.20170459487741E-18  -1.79160298383828E-17
     -4.92555769005711E-19  -1.53509480406093E-19  -9.31795097787646E-06   6.42208911501054E-19   9.31795097844178E-06
      1.74694592986720E-17  -3.11327607211104E-18  -1.79157909953357E-17  -5.01636022522638E-19  -1.53496664483412E-19
     -6.13948968090628E-18  -1.79175367576598E-17  -6.13930406916040E-18  -1.79172048671060E-17   0.00000000000000E+00
      3.65234598935755E-17  -1.90603887971838E-18  -6.88718268956139E-19  -2.54342773485117E-18  -1.52323880389142E-19
      2.08135855114881E-18  -1.52309769557750E-19   3.01927792994257E-18  -6.91097789208853E-19   0.00000000000000E+00
      9.94426631879141E-19
      1.00000000000000E+06
     -5.74211219463098E-37  -4.59564677119988E-37  -2.78571428571429E-01  -3.14544649585290E-42   1.35723052588354E-04
      2.34794409066262E-17  -1.35723052588260E-04   7.53487000531947E-18  -2.80031336252063E-17  -3.06414547762954E-17
     -6.57570837036479E-19  -1.89366072620219E-19  -1.35723052588194E-04   7.39657291104430E-18   1.35723052586425E-04
      2.28249201506434E-17  -1.95421533848074E-17  -3.06493277014614E-17  -5.68030422437317E-19  -1.89381229517018E-19
     -2.81576271073926E-17  -3.06484042516309E-17  -2.81572000563460E-17  -3.06480079296600E-17   0.00000000000000E+00
      6.18658888828136E-17  -1.21972214710689E-18  -5.69476704773481E-19  -2.63837369235566E-18  -1.84183989337444E-19
     -2.78186236727491E-18  -1.84168241191327E-19  -6.35427208573709E-19  -5.79856962314140E-19   1.48359829598058E-16
      9.47674524931782E-19
      1.00000000000000E+06
     -2.92937789430478E-33   2.32533262698973E-33  -4.17857142857143E-01  -6.30644603966439E-37   3.03956439256817E-04
      2.47954482420356E-17  -3.03956439253705E-04   1.24362053278646E-17  -3.99099440241881E-17  -3.62941105519602E-17
     -8.15640738612665E-19  -2.42437800600754E-19  -3.03956439253806E-04   1.22702339594764E-17   3.03956439256075E-04
      2.44473518864609E-17  -6.05137609268712E-17  -3.62982753099225E-17  -7.70957396405497E-19  -2.42432551606342E-19
     -3.18778729214611E-17  -3.63087173144468E-17  -3.18775628958075E-17  -3.63084243235324E-17   0.00000000000000E+00
      7.30506117701003E-17  -6.06604660093628E-19  -4.33470154309136E-19  -9.27124915681289E-17  -2.33993509747275E-19
     -9.92194931414625E-17  -2.33974938021944E-19  -2.74961615279682E-18  -4.50395347303865E-19   0.00000000000000E+00
      9.18377089010870E-19
      1.00000000000000E+06
     -1.35246879546700E-33  -5.86302589408146E-33  -5.57142857142857E-01  -2.93548114599461E-37   4.38098511268109E-04
      2.49227275830193E-17  -4.38098511268563E-04   1.49589883171911E-17  -7.07739875743974E-17  -3.86253282052783E-17
     -9.09595126077937E-19  -2.71296622825169E-19  -4.38098511269003E-04   1.51979839058725E-17   4.38098511269296E-04
      2.52905580562208E-17  -4.18496318871463E-17  -3.86201158288983E-17  -7.84983833659070E-19  -2.71268400456684E-19
     -3.14205472752812E-17  -3.86389275649061E-17  -3.14203938766624E-17  -3.86387388088942E-17   1.48359829598058E-16
      7.76341804894835E-17  -3.26192111956936E-19  -3.56514553608767E-19  -1.43431804289433E-17  -2.65043261573863E-19
     -1.45057852961025E-17  -2.65022573977012E-19  -2.71612513649230E-19  -3.69041845875706E-19   0.00000000000000E+00
      8.99170786520499E-19
      1.00000000000000E+06
      6.51365303540374E-35  -1.91194013367292E-34  -6.96428571428571E-01   1.23354999892666E-38   5.45116495640475E-04
      2.51176412195053E-17  -5.45116495655248E-04   1.66508627852337E-17   5.26773020586201E-17  -3.99569735240150E-17
     -8.49427440110788E-19  -2.88089820849409E-19  -5.45116495654508E-04   1.54692162678842E-17   5.45116495642849E-04
      2.35942630096098E-17  -1.11883333994366E-16  -3.99738072961619E-17  -9.18252352831278E-19  -2.88082724974000E-19
     -3.06813254767596E-17  -3.99702598452213E-17  -3.06812581397447E-17  -3.99701153446684E-17   0.00000000000000E+00
      8.02504189730026E-17  -1.80532380850714E-19  -3.10043790002670E-19  -6.79727996491315E-17  -2.84232780811880E-19
     -7.07817666771380E-17  -2.84210569641874E-19  -1.27115710822143E-19  -3.17774839657725E-19   0.00000000000000E+00
      8.86227551711204E-19
      1.00000000000000E+06
     -6.23108611889486E-32   1.57476444249555E-32  -8.35714285714286E-01  -7.81522855098673E-36   6.33148409293804E-04
      2.08086989085790E-17  -6.33148409290835E-04   1.40203705120385E-17  -8.90318860042423E-17  -4.09075495575395E-17
     -6.33319392342243E-19  -3.00979418838279E-19  -6.33148409288249E-04   1.60534562669266E-17   6.33148409293804E-04
      2.31729769274685E-17   1.08646722034668E-16  -4.08851133669189E-17  -9.07048052204968E-19  -3.00938035324696E-19
     -3.00488689263247E-17  -4.08775055788290E-17  -3.00488458189604E-17  -4.08773774490973E-17   0.00000000000000E+00
      8.20306104935400E-17  -8.25960234064673E-20  -2.75728061018510E-19  -6.40260791069726E-17  -2.98603331906571E-19
     -6.48997159283241E-17  -2.98580010917530E-19  -7.85662756680713E-18  -2.80425839952916E-19   0.00000000000000E+00
      8.77731825253778E-19
      1.00000000000000E+06
     -2.47668436738891E-34   6.74357335581506E-35  -9.75000000000000E-01  -4.25632295374994E-40   7.07478319747555E-04
      2.13251890407854E-17  -7.07478319738403E-04   1.50097222037853E-17  -1.42629760105516E-16  -4.15724705786428E-17
     -6.64746063654420E-19  -3.11934853483951E-19  -7.07478319727286E-04   1.69165486354683E-17   7.07478319779304E-04
      2.34149656065348E-17  -1.58035013161078E-16  -4.15555090155040E-17  -9.37920747685781E-19  -3.11894815474265E-19
     -2.95206175772513E-17  -4.15505031136381E-17  -2.95206284646739E-17  -4.15503979477410E-17   0.00000000000000E+00
      8.33486825770109E-17  -7.16048690011255E-21  -2.47783844951810E-19   5.34915125937875E-16  -3.10441640203602E-19
      5.42666064913245E-16  -3.10417575729365E-19   4.87998485467169E-18  -2.50723219014621E-19   0.00000000000000E+00
      8.71680198592461E-19
}
