DF-ISE text

Info {
  version   = 1.0
  type      = xyplot
  datasets  = [
    "ndrain OuterVoltage" "ndrain TotalCurrent" "nsource OuterVoltage" "nsource TotalCurrent" "substrate OuterVoltage" "ngate OuterVoltage" ]
  functions  = [
    OuterVoltage TotalCurrent OuterVoltage TotalCurrent OuterVoltage OuterVoltage ]
}

Data {
0.9 2.84908294343e-10 0.0 -2.84900495992e-10 0.0 0
0.9 2.45753945008e-8 0.0 -2.45748421376e-8 0.0 0.1
0.9 1.37385183921e-6 0.0 -1.37378869638e-6 0.0 0.2
0.9 1.28307481909e-5 0.0 -1.28289256108e-5 0.0 0.3
0.9 3.38383641518e-5 0.0 -3.38285006633e-5 0.0 0.4
0.9 5.87310063063e-5 0.0 -5.87065179458e-5 0.0 0.5
0.9 8.54234256919e-5 0.0 -8.53805499344e-5 0.0 0.6
0.9 0.000113116281061 0.0 -0.000113054472568 0.0 0.7
0.9 0.000141452623295 0.0 -0.000141373895447 0.0 0.8
0.9 0.000170267026861 0.0 -0.00017017420518 0.0 0.9
}
