DF-ISE text

Info {
  version   = 1.0
  type      = xyplot
  datasets  = [
    "pdrain OuterVoltage" "pdrain TotalCurrent" "psource OuterVoltage" "psource TotalCurrent" "substrate OuterVoltage" "pgate OuterVoltage" ]
  functions  = [
    OuterVoltage TotalCurrent OuterVoltage TotalCurrent OuterVoltage OuterVoltage ]
}

Data {
-0.9 -0.000128066624145 0.0 0.000128019499976 0.0 -0.9
-0.8 -0.000127204575447 0.0 0.000127161278198 0.0 -0.9
-0.7 -0.000126217277475 0.0 0.00012617856177 0.0 -0.9
-0.6 -0.000125060020626 0.0 0.000125026338627 0.0 -0.9
-0.5 -0.000123651267305 0.0 0.000123622545008 0.0 -0.9
-0.4 -0.000121630480599 0.0 0.000121606508535 0.0 -0.9
-0.3 -0.000118490616976 0.0 0.000118471988832 0.0 -0.9
-0.2 -0.000110435512301 0.0 0.000110426403985 0.0 -0.9
-0.1 -8.06091474708e-5 0.0 8.06086065898e-5 0.0 -0.9
-0.05 -4.82757837537e-5 0.0 4.82758314438e-5 0.0 -0.9
0.0 0 0.0 0 0.0 -0.9
}
