DF-ISE text

Info {
  version   = 1.0
  type      = xyplot
  datasets  = [
    "pdrain OuterVoltage" "pdrain TotalCurrent" "psource OuterVoltage" "psource TotalCurrent" "substrate OuterVoltage" "pgate OuterVoltage" ]
  functions  = [
    OuterVoltage TotalCurrent OuterVoltage TotalCurrent OuterVoltage OuterVoltage ]
}

Data {
-0.9 -0.000112206006361 0.0 0.000112133425892 0.0 -0.9
-0.8 -0.00011175083523 0.0 0.000111684516241 0.0 -0.9
-0.7 -0.000111201317773 0.0 0.000111142319927 0.0 -0.9
-0.6 -0.000110510756477 0.0 0.000110459104994 0.0 -0.9
-0.5 -0.000109579724268 0.0 0.000109535455279 0.0 -0.9
-0.4 -0.000108143770604 0.0 0.000108107678629 0.0 -0.9
-0.3 -0.000105045219984 0.0 0.000105019805659 0.0 -0.9
-0.2 -9.42833232665e-5 0.0 9.42736005534e-5 0.0 -0.9
-0.1 -6.3294300614e-5 0.0 6.32934655117e-5 0.0 -0.9
-0.05 -3.61219564091e-5 0.0 3.61222604502e-5 0.0 -0.9
0.0 0 0.0 0 0.0 -0.9
}
