DF-ISE text

Info {
  version   = 1.0
  type      = xyplot
  datasets  = [
    "pdrain OuterVoltage" "pdrain TotalCurrent" "psource OuterVoltage" "psource TotalCurrent" "substrate OuterVoltage" "pgate OuterVoltage" ]
  functions  = [
    OuterVoltage TotalCurrent OuterVoltage TotalCurrent OuterVoltage OuterVoltage ]
}

Data {
-0.9 -0.000126287851957 0.0 0.000126249283876 0.0 -0.9
-0.8 -0.000125092061302 0.0 0.000125055849746 0.0 -0.9
-0.7 -0.000123754328081 0.0 0.000123720858989 0.0 -0.9
-0.6 -0.000122221526436 0.0 0.000122191125752 0.0 -0.9
-0.5 -0.000120402998095 0.0 0.00012037585933 0.0 -0.9
-0.4 -0.00011810750532 0.0 0.000118084244928 0.0 -0.9
-0.3 -0.00011477104253 0.0 0.000114753252882 0.0 -0.9
-0.2 -0.000108073821101 0.0 0.00010806383407 0.0 -0.9
-0.1 -8.33457615305e-5 0.0 8.33438887902e-5 0.0 -0.9
-0.05 -5.22886571995e-5 0.0 5.22882755757e-5 0.0 -0.9
0.0 0 0.0 0 0.0 -0.9
}
