DF-ISE text

Info {
  version   = 1.0
  type      = xyplot
  datasets  = [
    "pdrain OuterVoltage" "pdrain TotalCurrent" "psource OuterVoltage" "psource TotalCurrent" "substrate OuterVoltage" "pgate OuterVoltage" ]
  functions  = [
    OuterVoltage TotalCurrent OuterVoltage TotalCurrent OuterVoltage OuterVoltage ]
}

Data {
-0.9 -0.000123256987721 0.0 0.000123211547487 0.0 -0.9
-0.8 -0.000122522405495 0.0 0.000122481181397 0.0 -0.9
-0.7 -0.000121674591102 0.0 0.000121638313824 0.0 -0.9
-0.6 -0.000120670655738 0.0 0.000120639745066 0.0 -0.9
-0.5 -0.000119317799313 0.0 0.000119291946723 0.0 -0.9
-0.4 -0.000117526195218 0.0 0.000117505426071 0.0 -0.9
-0.3 -0.000114521170098 0.0 0.000114505569394 0.0 -0.9
-0.2 -0.000106193950659 0.0 0.000106186557622 0.0 -0.9
-0.1 -7.65112576403e-5 0.0 7.65107243368e-5 0.0 -0.9
-0.05 -4.55483138966e-5 0.0 4.55483341439e-5 0.0 -0.9
0.0 0 0.0 0 0.0 -0.9
}
