DF-ISE text

Info {
  version   = 1.0
  type      = xyplot
  datasets  = [
    "frequency"
    "v(d)" "v(s)" "v(g)" "v(b)" "a(d,d)"
    "c(d,d)" "a(d,s)" "c(d,s)" "a(d,g)" "c(d,g)"
    "a(d,b)" "c(d,b)" "a(s,d)" "c(s,d)" "a(s,s)"
    "c(s,s)" "a(s,g)" "c(s,g)" "a(s,b)" "c(s,b)"
    "a(g,d)" "c(g,d)" "a(g,s)" "c(g,s)" "a(g,g)"
    "c(g,g)" "a(g,b)" "c(g,b)" "a(b,d)" "c(b,d)"
    "a(b,s)" "c(b,s)" "a(b,g)" "c(b,g)" "a(b,b)"
    "c(b,b)" ]
  functions = [
    Frequency
    Voltage Voltage Voltage Voltage Admittance
    Capacitance Admittance Capacitance Admittance Capacitance
    Admittance Capacitance Admittance Capacitance Admittance
    Capacitance Admittance Capacitance Admittance Capacitance
    Admittance Capacitance Admittance Capacitance Admittance
    Capacitance Admittance Capacitance Admittance Capacitance
    Admittance Capacitance Admittance Capacitance Admittance
    Capacitance ]
}

Data {
      1.00000000000000E+06
     -1.23259723251775E-46  -6.11492403094594E-47   9.75000000000000E-01   3.55384588352840E-48   0.00000000000000E+00
      1.41880926012885E-17   2.52697950633538E-17  -2.64867316882225E-21   3.87194509975405E-16  -1.18525255701616E-17
      9.80771264699888E-16  -2.05715645365244E-18   2.15360980272537E-17  -2.64858905859881E-21   0.00000000000000E+00
      1.45629606264873E-17   3.10017359489213E-16  -1.18538238705441E-17  -1.75461574395175E-15  -2.05696810874027E-18
      3.50072640696111E-16  -1.18519480971986E-17   3.50053303748959E-16  -1.18537154359127E-17   0.00000000000000E+00
      5.19111219502267E-17  -5.90804553241697E-15  -2.82054578134261E-17  -3.99279057648619E-16  -2.05802533717070E-18
     -3.99167241598773E-16  -2.05791462964571E-18  -5.91720073351165E-15  -2.82038260535986E-17   0.00000000000000E+00
      3.23193692740736E-17
      1.00000000000000E+06
      1.96787196118395E-36   1.51994411259189E-36   8.35714285714286E-01  -5.98045899706584E-37   0.00000000000000E+00
      1.40039188035281E-17   1.13651182992194E-17  -2.02452359195232E-20   2.15694897508972E-16  -1.29462190621644E-17
      1.11018528014098E-15  -1.13032217494690E-18   1.14238237877289E-17  -2.02444038040888E-20   0.00000000000000E+00
      1.44273108050413E-17   1.96383535074610E-16  -1.29477193057454E-17   7.86321298135554E-16  -1.13024426872754E-18
      1.37678634834142E-16  -1.29453831380655E-17   1.37673459601716E-16  -1.29473401419975E-17   0.00000000000000E+00
      3.98650791490033E-17  -2.41623528035329E-15  -1.39723560333093E-17  -1.57341652863605E-16  -1.13106385330532E-18
     -1.57359440851987E-16  -1.13102049634752E-18  -2.41586720420858E-15  -1.39708742078716E-17   0.00000000000000E+00
      1.62325788393947E-17
      1.00000000000000E+06
     -7.67132181615212E-38   4.38886086591925E-38   6.96428571428571E-01   5.97502323315842E-38   0.00000000000000E+00
      1.44259421233864E-17  -6.49177768138489E-17  -5.23252232267729E-20   4.74252538120348E-18  -1.39291413702525E-17
      2.53133367659968E-18  -4.11161341953882E-19  -6.50182468955937E-17  -5.23254254252237E-20   0.00000000000000E+00
      1.43933599440615E-17   4.81584808839909E-18  -1.39314210405244E-17  -2.78543665915885E-18  -4.11149551241392E-19
      3.80555533509741E-18  -1.39292402515633E-17   3.80494826118687E-18  -1.39314838161594E-17   1.48359829598058E-16
      2.98817745789850E-17  -6.29361976915507E-17  -2.02105051001992E-18  -6.36775496999126E-18  -4.11097686619015E-19
     -6.38728046482286E-18  -4.11085625577570E-19  -6.17195325837188E-17  -2.02118434290738E-18   0.00000000000000E+00
      2.84252872537339E-18
      1.00000000000000E+06
      2.66354557099345E-32  -1.49604290459032E-33   5.57142857142857E-01  -5.54157167759411E-34   0.00000000000000E+00
      1.47704449528965E-17  -7.24314134757410E-15  -6.22663951906406E-20   1.10504532832426E-18  -1.43786390389667E-17
      3.63053475383440E-17  -3.38425120572794E-19  -7.24355599848730E-15  -6.22654979373535E-20   0.00000000000000E+00
      1.49315794850947E-17   3.25439197436584E-18  -1.43810210602009E-17   3.46437250619596E-17  -3.38415737828298E-19
      5.68573269281120E-21  -1.43788561652216E-17   4.99088053477884E-21  -1.43814346676716E-17   0.00000000000000E+00
      3.00389831323043E-17  -7.57831332597504E-18  -1.27869229817798E-18  -2.47838258706641E-18  -3.38197781104622E-19
     -2.70985827954134E-18  -3.38190237451558E-19  -9.83807522973344E-18  -1.27914720957041E-18   0.00000000000000E+00
      1.95527194352873E-18
      1.00000000000000E+06
     -3.71835134333887E-35   1.74345944198668E-34   4.17857142857143E-01   3.11250269335352E-37   7.89719372950465E-13
      1.50096860147889E-17  -7.90125986263657E-13  -7.10258598637835E-20  -8.19697428399347E-19  -1.48347697755228E-17
      2.76826249267932E-18  -3.11328226336487E-19  -7.90125866667693E-13  -7.10260493782497E-20   7.89274293461671E-13
      1.50227432823086E-17  -3.61019859066004E-19  -1.48375574542014E-17   2.94336947084586E-18  -3.11323012727888E-19
     -4.22698360905165E-19  -1.48347657632801E-17  -4.23477668178144E-19  -1.48375532749515E-17   0.00000000000000E+00
      3.07912375184297E-17  -5.22710614597704E-18  -1.11891848037019E-18  -1.54707917517728E-18  -3.11073984361726E-19
     -1.54287070544086E-18  -3.11069036081062E-19  -5.29988669250447E-18  -1.11942165267405E-18   0.00000000000000E+00
      1.74154071219437E-18
      1.00000000000000E+06
      3.73499727352740E-35  -1.16204989230107E-35   2.78571428571429E-01  -1.51653084022649E-37   8.27020001308009E-11
      1.56871999063368E-17  -8.27030121644201E-11  -8.09400989712924E-20  -1.15640555451595E-18  -1.53575746805550E-17
      1.37271939393696E-18  -2.93306752219379E-19  -8.27030114941107E-11  -8.09413623588908E-20   8.27045222479040E-11
      1.56056288743030E-17  -9.63042998639726E-19  -1.53603342955898E-17  -5.36217890216992E-18  -2.93303894307910E-19
     -7.28556955445756E-19  -1.53578132029620E-17  -7.29336147051230E-19  -1.53604417816873E-17   0.00000000000000E+00
      3.17318256590865E-17  -4.08540710025462E-18  -1.01357067552520E-18  -1.23738171197916E-18  -2.93008614056474E-19
     -1.25641591618681E-18  -2.93005049290215E-19  -4.11518525747807E-18  -1.01416593090153E-18   0.00000000000000E+00
      1.59985215968897E-18
      1.00000000000000E+06
      6.08609139644835E-34   4.50785654864734E-34   1.39285714285714E-01   3.67009486530057E-39   8.12272693018354E-09
      2.24287159428231E-17  -8.12270878160053E-09  -9.38154704702862E-20   2.61478210128843E-18  -1.60174647149656E-17
     -6.05713908947941E-17  -2.80764083445746E-19  -8.12270878418421E-09  -9.40141850445384E-20   8.12269800001676E-09
      1.08604205034691E-17   1.07191428400074E-17  -1.60374193333171E-17  -2.31253550499799E-16  -2.80969964126945E-19
     -1.03226188847346E-18  -1.60263392775673E-17  -1.03299158925128E-18  -1.60285824494301E-17   0.00000000000000E+00
      3.29860207925544E-17  -3.31118832130864E-18  -9.31099066751162E-19  -1.08794184379489E-18  -2.80483824322028E-19
     -1.08404758528495E-18  -2.80480023190940E-19  -3.31726450659175E-18  -9.31875149805593E-19   0.00000000000000E+00
      1.49291564162026E-18
      1.00000000000000E+06
     -1.58560077703727E-34   3.55576543111312E-34   5.42101086242752E-20  -1.55272703582476E-39   7.01858142980731E-07
      1.74975228521168E-17  -7.01858141891905E-07  -9.67666529739356E-20  -1.54768491003807E-18  -1.71616070830676E-17
     -1.34451706295170E-18  -2.73523896335592E-19  -7.01858141893072E-07  -9.66869366626940E-20   7.01858142535651E-07
      1.76611473005006E-17  -1.89267639169452E-18  -1.71637244738791E-17   5.39669462400144E-19  -2.73515500744636E-19
     -1.54710597044398E-18  -1.71621293957133E-17  -1.54801705844250E-18  -1.71645693620555E-17   0.00000000000000E+00
      3.51870353405013E-17  -2.73539512489122E-18  -8.60336582593496E-19  -9.84181462400233E-19  -2.72940676716047E-19
     -9.84775171918011E-19  -2.72936767262039E-19  -2.74612914964861E-18  -8.61499258473379E-19   1.48359829598058E-16
      1.40822964205550E-18
      1.00000000000000E+06
      4.18150004432243E-35  -7.54543592518683E-35  -1.39285714285714E-01  -7.25305809639180E-41   3.29876981986002E-05
      2.06524209144684E-17  -3.29876981994113E-05   1.05181049652768E-18  -3.19230901280858E-18  -2.14268371299204E-17
      8.26132455366350E-20  -2.76448153403243E-19  -3.29876981994220E-05   1.05341926844477E-18   3.29876982020124E-05
      2.07264413933439E-17  -8.23247773891710E-18  -2.14297583101008E-17   1.95809126741734E-18  -2.76443233220235E-19
     -5.65068811119548E-18  -2.14279843065270E-17  -5.65183442148337E-18  -2.14311332826739E-17   0.00000000000000E+00
      4.36426875385384E-17  -2.21926606520554E-18  -7.83569949137308E-19  -1.99788756347761E-17  -2.75294891701525E-19
     -2.24117309364090E-17  -2.75291515999175E-19  -8.18500015977864E-17  -7.85825587026037E-19  -3.79801163771029E-14
      1.35788642949135E-18
      1.00000000000000E+06
      5.27052104466919E-35  -2.35504785782581E-34  -2.78571428571429E-01   2.41806673357589E-41   2.05890385515817E-04
      2.42862724832596E-17  -2.05890385521442E-04   5.85190937943533E-18  -2.33008489758478E-17  -2.87160553770378E-17
     -3.47074770736230E-18  -3.05639940111077E-19  -2.05890385520860E-04   5.82586809723263E-18   2.05890385524126E-04
      2.41576907368638E-17  -1.35734563372202E-17  -2.87210587300864E-17   5.24908520901751E-18  -3.05643667642817E-19
     -1.30991644827282E-17  -2.87245256204016E-17  -1.31015752214936E-17  -2.87289805049303E-17   1.48359829598058E-16
      5.81246523882579E-17  -1.63558096365451E-18  -6.71146253830408E-19   1.78655197982388E-16  -3.02449116503914E-19
      1.39372592601802E-16  -3.02448779390747E-19  -1.46543713039264E-17  -6.77607363873505E-19  -3.76833967179068E-14
      1.28123877696025E-18
      1.00000000000000E+06
      4.84198213349951E-37   3.61493636920324E-36  -4.17857142857143E-01  -6.25085332069363E-40   4.08188787477226E-04
      2.36713682816786E-17  -4.08188787473081E-04   9.04619850307478E-18  -1.37314733215797E-17  -3.24247557533366E-17
     -9.00048699901726E-19  -3.50609716728498E-19  -4.08188787472751E-04   9.00515114527119E-18   4.08188787473369E-04
      2.35464194420913E-17  -7.34479204089667E-18  -3.24310314284595E-17  -5.08247376342976E-18  -3.50619953912517E-19
     -1.48119867671041E-17  -3.24315270803455E-17  -1.48153289255749E-17  -3.24369546102513E-17   0.00000000000000E+00
      6.54160122172086E-17  -1.11383602831084E-18  -5.47530489642281E-19  -1.07673340545104E-16  -3.43563674575902E-19
     -9.76833772524401E-17  -3.43567189417591E-19  -7.33485684645003E-20  -5.61621249979566E-19   0.00000000000000E+00
      1.24800781482883E-18
      1.00000000000000E+06
     -4.33633435885324E-34  -4.25122470193266E-35  -5.57142857142857E-01  -1.07058185071955E-37   5.84130651838097E-04
      2.31209507643992E-17  -5.84130651833000E-04   1.09212010253600E-17   2.38184527215003E-17  -3.45155259453112E-17
     -2.10891521330802E-18  -3.89233436405132E-19  -5.84130651828722E-04   9.47901201378196E-18   5.84130651834388E-04
      1.99637367733850E-17   6.61807817510196E-18  -3.45424738667728E-17   3.14933993159352E-18  -3.89372797196232E-19
     -1.51878416716823E-17  -3.45199165874056E-17  -1.51913784706031E-17  -3.45256918917696E-17   0.00000000000000E+00
      6.94951544836981E-17  -7.54048643654151E-19  -4.49545616036761E-19   2.87646705992838E-17  -3.80837403265473E-19
      3.69757098151181E-17  -3.80842605399619E-19   3.43619410972654E-18  -4.66290822691399E-19   0.00000000000000E+00
      1.22818803904222E-18
      1.00000000000000E+06
     -3.11675344656852E-34   2.51103521231216E-34  -6.96428571428571E-01   1.94413712398617E-37   7.34046040093236E-04
      2.00748850795105E-17  -7.34046040077031E-04   1.06090066903639E-17   6.24815432222784E-17  -3.58520494761077E-17
      3.58242745669805E-18  -4.11183790872947E-19  -7.34046040067513E-04   1.10334120402248E-17   7.34046040070982E-04
      2.08132211473021E-17   2.39370335156378E-16  -3.58523109035947E-17   4.38643210054088E-17  -4.11169419924605E-19
     -1.51378570197095E-17  -3.58353715147705E-17  -1.51412546779796E-17  -3.58411212549069E-17   0.00000000000000E+00
      7.20655876887749E-17  -5.54525696653666E-19  -3.89093290182207E-19   4.06251678735524E-16  -4.04121745701898E-19
      4.07349364992146E-16  -4.04125001394880E-19   1.63636375170025E-18  -4.03007960246591E-19   0.00000000000000E+00
      1.21238851945114E-18
      1.00000000000000E+06
      6.19006909072855E-33   3.46315140090140E-33  -8.35714285714286E-01  -2.83995990548300E-37   8.63058439613161E-04
      2.04968427485495E-17  -8.63058439587495E-04   1.16734150201169E-17   3.75330968604742E-17  -3.67485975582124E-17
      8.28708399335531E-18  -4.23322690768679E-19  -8.63058439610764E-04   2.03749950833732E-17   8.63058439562273E-04
      3.38258425015774E-17   1.96896237760562E-16  -3.66722536240421E-17  -5.79386492096742E-17  -4.23049040462816E-19
     -1.49607469648914E-17  -3.67346359278029E-17  -1.49639219357136E-17  -3.67401761529622E-17   0.00000000000000E+00
      7.38244090166411E-17  -4.31357377424953E-19  -3.49596580624521E-19  -9.55471282903831E-17  -4.18189779933075E-19
     -9.76466511785154E-17  -4.18189820790081E-19  -9.52393569862652E-19  -3.59731951137715E-19   1.48359829598058E-16
      1.19719995752556E-18
      1.00000000000000E+06
      1.23699153319869E-35   5.30358789186738E-35  -9.75000000000000E-01  -1.23341129264477E-39   9.75580795015442E-04
      1.90551146703656E-17  -9.75580795036980E-04   1.12600688328199E-17  -1.40714166541133E-16  -3.74133804863800E-17
      4.26117274824763E-17  -4.31383459142880E-19  -9.75580795066091E-04   2.65788895294860E-17   9.75580795004760E-04
      4.03528029580459E-17  -2.19549070081346E-17  -3.72978150336694E-17  -5.60930095085316E-17  -4.31060327186101E-19
     -1.47581441065713E-17  -3.73915318091397E-17  -1.47610410075768E-17  -3.73967850630186E-17   1.48359829598058E-16
      7.51080027357993E-17  -3.39769922533393E-19  -3.19685787558295E-19   3.36709903984142E-16  -4.27760709152122E-19
      3.12773201729797E-16  -4.27757478070223E-19   2.49051320458493E-18  -3.26788719097467E-19   0.00000000000000E+00
      1.18397656273400E-18
}
