DF-ISE text

Info {
  version   = 1.0
  type      = xyplot
  datasets  = [
    "frequency"
    "v(d)" "v(s)" "v(g)" "v(b)" "a(d,d)"
    "c(d,d)" "a(d,s)" "c(d,s)" "a(d,g)" "c(d,g)"
    "a(d,b)" "c(d,b)" "a(s,d)" "c(s,d)" "a(s,s)"
    "c(s,s)" "a(s,g)" "c(s,g)" "a(s,b)" "c(s,b)"
    "a(g,d)" "c(g,d)" "a(g,s)" "c(g,s)" "a(g,g)"
    "c(g,g)" "a(g,b)" "c(g,b)" "a(b,d)" "c(b,d)"
    "a(b,s)" "c(b,s)" "a(b,g)" "c(b,g)" "a(b,b)"
    "c(b,b)" ]
  functions = [
    Frequency
    Voltage Voltage Voltage Voltage Admittance
    Capacitance Admittance Capacitance Admittance Capacitance
    Admittance Capacitance Admittance Capacitance Admittance
    Capacitance Admittance Capacitance Admittance Capacitance
    Admittance Capacitance Admittance Capacitance Admittance
    Capacitance Admittance Capacitance Admittance Capacitance
    Admittance Capacitance Admittance Capacitance Admittance
    Capacitance ]
}

Data {
      1.00000000000000E+06
     -1.74795044659879E-46  -2.31967984799652E-46   9.75000000000000E-01   1.07945151504600E-48   0.00000000000000E+00
      1.37815981502674E-17   3.17240987028433E-17  -3.11320765167089E-22   1.07348343542403E-15  -1.18055206000115E-17
      3.50388705942961E-14  -2.06755048078276E-18  -3.49422908672242E-18  -3.11380492811365E-22   0.00000000000000E+00
      1.38280269103253E-17  -4.16940705020865E-16  -1.18051433998078E-17  -4.15284359094168E-14  -2.06763119768564E-18
      3.84411827818726E-16  -1.18046651579973E-17   3.84412344217925E-16  -1.18043268704514E-17   0.00000000000000E+00
      6.71905694967632E-17  -9.47256160224410E-15  -4.35815680351311E-17  -4.13248213697659E-16  -2.06839323764518E-18
     -4.14512447154695E-16  -2.06837586465837E-18  -9.20706560626970E-15  -4.35799997545438E-17   2.03252966549340E-14
      4.77188918391767E-17
      1.00000000000000E+06
      5.10021226528068E-37  -2.40533065669482E-37   8.35714285714286E-01   5.10927367331428E-38   0.00000000000000E+00
      1.40745667757923E-17   4.42026624145413E-18  -1.11174402798602E-21   9.88109478504292E-17  -1.27407132507552E-17
     -2.95688584418234E-15  -1.33635954274954E-18  -6.07618875093634E-18  -1.11174154438637E-21   1.48359829598058E-16
      1.41187732488943E-17  -4.83575146106106E-16  -1.27403196378043E-17  -1.82780434896688E-14  -1.33632545940498E-18
      2.01872515507159E-16  -1.27399830485196E-17   2.01871616325086E-16  -1.27396347471161E-17   0.00000000000000E+00
      5.50960457573730E-17  -5.63073629987769E-15  -2.96164266727389E-17  -2.18769763886607E-16  -1.33708564216001E-18
     -2.18600049984552E-16  -1.33705685109540E-18  -5.61256064102459E-15  -2.96149669056549E-17   0.00000000000000E+00
      3.22893504381943E-17
      1.00000000000000E+06
     -1.84239091992127E-37   1.22251258700042E-37   6.96428571428571E-01   3.64569063548562E-37   0.00000000000000E+00
      1.43829261166268E-17  -3.64822744064458E-18  -9.20846990888339E-21   3.56860690888396E-17  -1.38216617725092E-17
      1.49606608675181E-16  -5.46373395496322E-19  -2.95096893850587E-18  -9.20832939998629E-21   0.00000000000000E+00
      1.45362115530627E-17   3.96026877193220E-17  -1.38211253440466E-17   2.14635160141316E-16  -5.46331981712233E-19
      2.20496454555774E-17  -1.38213376180260E-17   2.20492675451316E-17  -1.38209677538887E-17   0.00000000000000E+00
      3.44265040837671E-17  -6.01300796041419E-16  -6.78419870615323E-18  -2.57645928084447E-17  -5.46704320579512E-19
     -2.58086806107056E-17  -5.46670713958869E-19  -6.04349175964673E-16  -6.78354766138148E-18   0.00000000000000E+00
      7.87654821677488E-18
      1.00000000000000E+06
      2.08608386503700E-39  -2.03644124107187E-38   5.57142857142857E-01   7.85826562729738E-37   0.00000000000000E+00
      1.45993617837165E-17  -6.44311509185216E-16  -1.50598625555785E-20  -3.65093369497762E-18  -1.43974601429013E-17
     -4.67502569570307E-17  -3.58182496508325E-19  -6.44165017235687E-16  -1.50597514951403E-20   0.00000000000000E+00
      1.46898576228747E-17  -4.88592935507181E-19  -1.43969575850929E-17   5.47755095395472E-18  -3.58150282761953E-19
      4.74170521137321E-19  -1.43974912529515E-17   4.74113683264388E-19  -1.43970837598721E-17   0.00000000000000E+00
      3.06013740932774E-17  -1.47658324390818E-17  -1.80679907851585E-18  -2.49618123717651E-18  -3.57964329784254E-19
     -2.51730470619135E-18  -3.57934903753059E-19  -1.47418523305900E-17  -1.80722633755939E-18   0.00000000000000E+00
      2.52281380892582E-18
      1.00000000000000E+06
      6.99988028794655E-33  -3.12150352985771E-33   4.17857142857143E-01  -6.14917565761710E-35   9.49502909427574E-14
      1.50898801974557E-17  -9.72456245152123E-14  -1.87942128448502E-20   1.87513632962036E-19  -1.48759964695174E-17
     -1.57783364302578E-17  -3.21344473883778E-19  -9.72451901458089E-14  -1.87938498305501E-20   9.02027763956195E-14
      1.52934834541889E-17  -4.90201921117840E-19  -1.48753199562112E-17  -1.63108405740643E-17  -3.21311201592764E-19
     -2.65731195112655E-19  -1.48761116675172E-17  -2.65738244154979E-19  -1.48756619592240E-17   0.00000000000000E+00
      3.12123569032280E-17  -7.14624553035197E-18  -1.46058327548549E-18  -1.63000137668331E-18  -3.21085965745301E-19
     -1.62145467373636E-18  -3.21059097055161E-19  -7.15713343133450E-18  -1.46109192216057E-18   0.00000000000000E+00
      2.10329402347102E-18
      1.00000000000000E+06
      1.10740954059801E-35  -1.68246721673893E-34   2.78571428571429E-01   7.28378644901405E-38   1.43591544674777E-11
      1.57425244270124E-17  -1.43610284428711E-11  -2.26373658858708E-20  -7.71446553585237E-19  -1.54139046862194E-17
     -1.88782542851068E-18  -2.99246581309478E-19  -1.43610283848845E-11  -2.26372389793246E-20   1.43590061076481E-11
      1.57886966305276E-17  -1.23750228449442E-18  -1.54133478721212E-17   3.97351003874269E-19  -2.99219470986189E-19
     -6.33589719527740E-19  -1.54142105392897E-17  -6.33562623686511E-19  -1.54137124172899E-17   0.00000000000000E+00
      3.21241189781830E-17  -5.26843946349365E-18  -1.29619602039105E-18  -1.28664647937396E-18  -2.98949033230015E-19
     -1.30129376232906E-18  -2.98923875809696E-19  -5.28316935188302E-18  -1.29679085263285E-18   0.00000000000000E+00
      1.89480879869665E-18
      1.00000000000000E+06
     -5.78002080004624E-34  -4.53709414387233E-35   1.39285714285714E-01   5.82086762057607E-36   2.03554389215134E-09
      1.64155952846706E-17  -2.03554210782657E-09  -2.71203822284314E-20  -1.24525802459404E-18  -1.60942035735392E-17
      4.19426979983475E-17  -2.84275909292310E-19  -2.03554210524061E-09  -2.71200619940341E-20   2.03554300199237E-09
      1.64728471043799E-17  -1.46834306228296E-18  -1.60935550052565E-17   2.07283603328726E-17  -2.84249365567947E-19
     -9.64021016535300E-19  -1.60946034092851E-17  -9.63956471272085E-19  -1.60940426423449E-17   0.00000000000000E+00
      3.33676763170703E-17  -4.14387967454994E-18  -1.17903026692403E-18  -1.08347007139855E-18  -2.83890526176955E-19
     -1.08728009000275E-18  -2.83866708435709E-19  -4.15704412867586E-18  -1.17980093789558E-18   0.00000000000000E+00
      1.74769772483807E-18
      1.00000000000000E+06
      3.06860961096942E-33   7.59889536764345E-33   5.42101086242752E-20   7.14743386064521E-40   2.64859371250670E-07
      1.77010610071071E-17  -2.64859372128120E-07  -2.03828050529823E-20  -1.33958160159609E-18  -1.72425878085501E-17
     -1.01309362536045E-18  -2.75239453760753E-19  -2.64859372128805E-07  -2.04273351198607E-20   2.64859371992470E-07
      1.74954281612414E-17  -1.59314416000876E-18  -1.72423337307926E-17  -1.03292760374386E-18  -2.75224869823012E-19
     -1.49446714233081E-18  -1.72434815772060E-17  -1.49434346104021E-18  -1.72428246539615E-17   0.00000000000000E+00
      3.55707826124008E-17  -3.36389193980667E-18  -1.08447638211883E-18  -8.89189507890469E-19  -2.74668962306804E-19
     -9.20482015888654E-19  -2.74646466557736E-19  -3.38880702400850E-18  -1.08562870182029E-18   0.00000000000000E+00
      1.63516361476658E-18
      1.00000000000000E+06
      1.91275954043783E-34  -1.88550740094789E-34  -1.39285714285714E-01   1.42255393410912E-39   2.10344116219577E-05
      2.15488541693086E-17  -2.10344116215040E-05   1.29807221627932E-18  -3.23968849490547E-17  -2.26238735536258E-17
      4.74627664053505E-19  -2.78477354293123E-19  -2.10344116215408E-05   1.29827627164704E-18   2.10344116229962E-05
      2.15572933941085E-17   1.22814255338559E-17  -2.26229913086340E-17  -1.45287632127473E-19  -2.78456257027792E-19
     -8.45809112693510E-18  -2.26248277920893E-17  -8.45777990997510E-18  -2.26239811645881E-17   0.00000000000000E+00
      4.62353378322997E-17  -2.69504980704603E-18  -9.86528875356373E-19  -1.81788692478355E-17  -2.77311988070279E-19
     -2.18318165431736E-17  -2.77290848876973E-19  -4.16051752213952E-17  -9.88836861052403E-19  -5.22226600185166E-14
      1.55170940455107E-18
      1.00000000000000E+06
      5.52122048497794E-35   7.82807188591208E-35  -2.78571428571429E-01  -1.12463696768505E-40   1.72381495729948E-04
      2.84940643567990E-17  -1.72381495725845E-04   7.78794823793690E-18  -3.05334230857925E-17  -3.40860420257144E-17
      5.10202510465339E-18  -3.21602696020545E-19  -1.72381495725581E-04   7.47827247988044E-18   1.72381495730245E-04
      2.64370053716846E-17  -3.07207253080604E-17  -3.40990715224951E-17  -1.32191774083588E-18  -3.21675469290811E-19
     -2.39110524165418E-17  -3.41004595276725E-17  -2.39104267055862E-17  -3.40994053681913E-17   0.00000000000000E+00
      6.90314976871173E-17  -1.88243243584191E-18  -8.31632845209038E-19   9.19871107958499E-16  -3.17893563501857E-19
      9.87883976823736E-16  -3.17869340195600E-19  -1.90110075921819E-16  -8.39221503096818E-19  -1.40793478288557E-13
      1.46682749615263E-18
      1.00000000000000E+06
     -1.12207894476458E-35  -2.12081312096660E-35  -4.17857142857143E-01   2.67668728096037E-39   3.62495757315287E-04
      2.88064676434145E-17  -3.62495757316315E-04   1.19483820461245E-17  -8.14678607708103E-17  -3.94251395199172E-17
     -1.02606526439745E-17  -3.86111326319713E-19  -3.62495757314285E-04   1.15599767446838E-17   3.62495757321370E-04
      2.76002161997689E-17  -2.23834637535605E-17  -3.94333172932148E-17  -5.74193083499973E-18  -3.86131320680305E-19
     -2.58087749658698E-17  -3.94392646885775E-17  -2.58080634855714E-17  -3.94381426123683E-17   0.00000000000000E+00
      7.95393786139663E-17  -1.17724108920485E-18  -6.61971305800147E-19   1.30809833171672E-16  -3.77213310507034E-19
      1.49665215067660E-16  -3.77183232337135E-19   8.67795572638543E-19  -6.79822470574107E-19   0.00000000000000E+00
      1.43512343404674E-18
      1.00000000000000E+06
      1.74355121785220E-34   1.57578025473820E-34  -5.57142857142857E-01   3.45809182723567E-37   5.32419270951945E-04
      2.77743398112189E-17  -5.32419270952032E-04   1.40098970415938E-17  -2.13278027155644E-17  -4.22846539877764E-17
     -3.46651426468174E-18  -4.37841003696411E-19  -5.32419270951366E-04   1.46195437628958E-17   5.32419270956841E-04
      2.90892500341918E-17  -3.31602499637101E-17  -4.22735425093584E-17   1.23482785489089E-18  -4.37772572162183E-19
     -2.56766345085835E-17  -4.22903664440906E-17  -2.56759588094244E-17  -4.22892535850257E-17   0.00000000000000E+00
      8.51140272124977E-17  -7.25855806515377E-19  -5.34407846050629E-19   8.01005243210111E-16  -4.27433122070760E-19
      8.11782530713849E-16  -4.27396464297774E-19   1.27153308464256E-17  -5.55188291017312E-19   0.00000000000000E+00
      1.41205223772609E-18
      1.00000000000000E+06
     -4.84583950859844E-33   1.09723831187515E-32  -6.96428571428571E-01  -1.47090431832332E-37   6.79867881948607E-04
      2.71811396683823E-17  -6.79867881929500E-04   1.53085111578918E-17   9.40224475358778E-17  -4.40423730357094E-17
     -5.29957966476854E-18  -4.65523625753843E-19  -6.79867881929186E-04   1.71974405552181E-17   6.79867881937479E-04
      3.04993875405418E-17  -2.18299497067522E-16  -4.40176601571130E-17  -2.04488063721256E-18  -4.65441851947159E-19
     -2.51147385881123E-17  -4.40417454547479E-17  -2.51141208761926E-17  -4.40406685286213E-17   1.48359829598058E-16
      8.85417956780308E-17  -4.94444814336876E-19  -4.59383267662857E-19   4.37606710055870E-16  -4.57164313967788E-19
      4.00823875690120E-16  -4.57122270617121E-19   4.96345906384806E-18  -4.76073322828553E-19   0.00000000000000E+00
      1.38959261794392E-18
      1.00000000000000E+06
      1.03219603608798E-33  -1.03079084769670E-33  -8.35714285714286E-01  -5.77682984453327E-37   8.08465112942364E-04
      2.83288503087873E-17  -8.08465112915844E-04   1.72337587290831E-17   3.39345927626498E-16  -4.52203819110043E-17
     -8.48676955705348E-18  -4.80717961844767E-19  -8.08465112843409E-04   1.48328520616077E-17   8.08465112982272E-04
      2.45762560766607E-17   7.95460287598727E-16  -4.52438884339858E-17   3.43582229335616E-18  -4.80694511095539E-19
     -2.45138155470607E-17  -4.52257402892497E-17  -2.45132916168519E-17  -4.52247113306318E-17   0.00000000000000E+00
      9.08615428655529E-17  -3.56404247437037E-19  -4.11091369689980E-19   3.73125299681149E-16  -4.74814885815587E-19
      3.66880963171594E-16  -4.74768792022567E-19   2.87720055953694E-18  -4.22896501661914E-19   0.00000000000000E+00
      1.37232099861863E-18
      1.00000000000000E+06
      6.91283394215919E-36   9.38575224793829E-35  -9.75000000000000E-01  -4.06781973164167E-39   9.21762824895525E-04
      3.38807156004018E-17  -9.21762824904063E-04   2.22521863075964E-17  -5.40284432800745E-17  -4.60484360728250E-17
     -3.67795413150448E-18  -4.90838598010304E-19  -9.21762824903141E-04   2.24990587280902E-17   9.21762824914366E-04
      3.44494864658018E-17   9.21370769607969E-17  -4.60444349770997E-17  -2.43675483619595E-18  -4.90783087644257E-19
     -2.39670991912835E-17  -4.60851669406739E-17  -2.39666400211070E-17  -4.60841978338513E-17   0.00000000000000E+00
      9.25439807656534E-17  -2.54651785051456E-19  -3.74616682347098E-19  -2.36751251037047E-16  -4.86824871308222E-19
     -2.43876708610419E-16  -4.86776028732012E-19  -4.24300765023158E-18  -3.82689608641408E-19   0.00000000000000E+00
      1.35487512763355E-18
}
