DF-ISE text

Info {
  version   = 1.0
  type      = xyplot
  datasets  = [
    "pdrain OuterVoltage" "pdrain TotalCurrent" "psource OuterVoltage" "psource TotalCurrent" "substrate OuterVoltage" "pgate OuterVoltage" ]
  functions  = [
    OuterVoltage TotalCurrent OuterVoltage TotalCurrent OuterVoltage OuterVoltage ]
}

Data {
-0.9 -0.000128066624145 0.0 0.000128019499976 0.0 -0.9
-0.9 -0.000107450572876 0.0 0.000107409722971 0.0 -0.8
-0.9 -8.7374991522e-5 0.0 8.73419007024e-5 0.0 -0.7
-0.9 -6.80043247009e-5 0.0 6.79797653713e-5 0.0 -0.6
-0.9 -4.9589537036e-5 0.0 4.95734017669e-5 0.0 -0.5
-0.9 -3.25466089251e-5 0.0 3.25377379868e-5 0.0 -0.4
-0.9 -1.76314039767e-5 0.0 1.76277081797e-5 0.0 -0.3
-0.9 -6.34877598835e-6 0.0 6.3478516991e-6 0.0 -0.2
-0.9 -9.24871439972e-7 0.0 9.24774602033e-7 0.0 -0.1
-0.9 -5.13434114159e-8 0.0 5.13382939932e-8 0.0 0
-0.9 -2.04185445593e-9 0.0 2.0416564919e-9 0.0 0.1
-0.9 -7.40684064304e-11 0.0 7.40607823528e-11 0.0 0.2
-0.9 -2.56859992999e-12 0.0 2.56830031552e-12 0.0 0.3
}
