DF-ISE text

Info {
  version   = 1.0
  type      = xyplot
  datasets  = [
    "pdrain OuterVoltage" "pdrain TotalCurrent" "psource OuterVoltage" "psource TotalCurrent" "substrate OuterVoltage" "pgate OuterVoltage" ]
  functions  = [
    OuterVoltage TotalCurrent OuterVoltage TotalCurrent OuterVoltage OuterVoltage ]
}

Data {
-0.9 -0.000118927191677 0.0 0.000118871347277 0.0 -0.9
-0.8 -0.000118287032003 0.0 0.000118236120619 0.0 -0.9
-0.7 -0.000117541906445 0.0 0.000117496725637 0.0 -0.9
-0.6 -0.000116647048694 0.0 0.000116608046393 0.0 -0.9
-0.5 -0.000115516804197 0.0 0.000115484028576 0.0 -0.9
-0.4 -0.000113822610738 0.0 0.000113796181537 0.0 -0.9
-0.3 -0.000110936395961 0.0 0.000110917343224 0.0 -0.9
-0.2 -0.000102361162286 0.0 0.000102354244123 0.0 -0.9
-0.1 -7.28668111427e-5 0.0 7.28669310352e-5 0.0 -0.9
-0.05 -4.31355344079e-5 0.0 4.31357466532e-5 0.0 -0.9
0.0 0 0.0 0 0.0 -0.9
}
