DF-ISE text

Info {
  version   = 1.0
  type      = xyplot
  datasets  = [
    "ndrain OuterVoltage" "ndrain TotalCurrent" "nsource OuterVoltage" "nsource TotalCurrent" "substrate OuterVoltage" "ngate OuterVoltage" ]
  functions  = [
    OuterVoltage TotalCurrent OuterVoltage TotalCurrent OuterVoltage OuterVoltage ]
}

Data {
0.05 2.73571835847e-14 0.0 -2.73564268335e-14 0.0 -0.3
0.05 1.05334515629e-12 0.0 -1.05332112494e-12 0.0 -0.2
0.05 4.01207412304e-11 0.0 -4.0119922343e-11 0.0 -0.1
0.05 1.50244161098e-9 0.0 -1.50240943226e-9 0.0 0
0.05 5.39245778392e-8 0.0 -5.39230056503e-8 0.0 0.1
0.05 1.39682955206e-6 0.0 -1.39675179044e-6 0.0 0.2
0.05 9.7916506474e-6 0.0 -9.79077426744e-6 0.0 0.3
0.05 2.39365893411e-5 0.0 -2.39348595065e-5 0.0 0.4
0.05 3.73740504997e-5 0.0 -3.73727851645e-5 0.0 0.5
0.05 4.80205769055e-5 0.0 -4.80201039984e-5 0.0 0.6
0.05 5.62852025953e-5 0.0 -5.62854280977e-5 0.0 0.7
0.05 6.28940332768e-5 0.0 -6.28948610625e-5 0.0 0.8
0.05 6.83701035996e-5 0.0 -6.83714566429e-5 0.0 0.9
}
