DF-ISE text

Info {
  version   = 1.0
  type      = xyplot
  datasets  = [
    "ndrain OuterVoltage" "ndrain TotalCurrent" "nsource OuterVoltage" "nsource TotalCurrent" "substrate OuterVoltage" "ngate OuterVoltage" ]
  functions  = [
    OuterVoltage TotalCurrent OuterVoltage TotalCurrent OuterVoltage OuterVoltage ]
}

Data {
0.0 0 0.0 0 0.0 0.9
0.05 6.83701035996e-5 0.0 -6.83714566429e-5 0.0 0.9
0.1 0.000108076329404 0.0 -0.000108072741148 0.0 0.9
0.2 0.000131901594391 0.0 -0.000131859882843 0.0 0.9
0.3 0.000134894923891 0.0 -0.000134832861981 0.0 0.9
0.4 0.00013618443763 0.0 -0.00013610836944 0.0 0.9
0.5 0.000137049170637 0.0 -0.000136963346539 0.0 0.9
0.6 0.000137721134163 0.0 -0.000137625565755 0.0 0.9
0.7 0.000138272906581 0.0 -0.000138174131369 0.0 0.9
0.8 0.000138747258535 0.0 -0.000138646744879 0.0 0.9
0.9 0.000139168345598 0.0 -0.000139065031009 0.0 0.9
}
