DF-ISE text

Info {
  version   = 1.0
  type      = xyplot
  datasets  = [
    "frequency"
    "v(d)" "v(s)" "v(g)" "v(b)" "a(d,d)"
    "c(d,d)" "a(d,s)" "c(d,s)" "a(d,g)" "c(d,g)"
    "a(d,b)" "c(d,b)" "a(s,d)" "c(s,d)" "a(s,s)"
    "c(s,s)" "a(s,g)" "c(s,g)" "a(s,b)" "c(s,b)"
    "a(g,d)" "c(g,d)" "a(g,s)" "c(g,s)" "a(g,g)"
    "c(g,g)" "a(g,b)" "c(g,b)" "a(b,d)" "c(b,d)"
    "a(b,s)" "c(b,s)" "a(b,g)" "c(b,g)" "a(b,b)"
    "c(b,b)" ]
  functions = [
    Frequency
    Voltage Voltage Voltage Voltage Admittance
    Capacitance Admittance Capacitance Admittance Capacitance
    Admittance Capacitance Admittance Capacitance Admittance
    Capacitance Admittance Capacitance Admittance Capacitance
    Admittance Capacitance Admittance Capacitance Admittance
    Capacitance Admittance Capacitance Admittance Capacitance
    Admittance Capacitance Admittance Capacitance Admittance
    Capacitance ]
}

Data {
      1.00000000000000E+06
      3.30448052457504E-46   9.05653040563000E-46   9.75000000000000E-01   1.48750286452549E-48   0.00000000000000E+00
      1.40496513377592E-17   9.72083854285351E-18  -7.46497266469495E-22   1.10174271935769E-16  -1.19517536748371E-17
     -8.74839136846638E-15  -1.86876797627011E-18  -1.50526037649967E-17  -7.46512978019815E-22   0.00000000000000E+00
      1.38823050027381E-17  -1.08916736840230E-15  -1.19514425525363E-17  -6.70207479804180E-14  -1.86877141093491E-18
      2.84902506435742E-16  -1.19507994448352E-17   2.84906121283111E-16  -1.19503522029893E-17   0.00000000000000E+00
      5.83159172899401E-17  -6.31638834789445E-15  -3.44147802102263E-17  -3.14107712991544E-16  -1.86997883410905E-18
     -3.13965198337610E-16  -1.86997524277500E-18  -6.29159989267031E-15  -3.44124676845434E-17   0.00000000000000E+00
      3.81523669355062E-17
      1.00000000000000E+06
      6.13502274094091E-36   5.47774513607777E-36   8.35714285714286E-01  -2.14291285101771E-35   0.00000000000000E+00
      1.35144000619061E-17   8.95886696336767E-18  -7.07087981435701E-21   2.31718416172654E-16  -1.30140558991050E-17
      1.80506935127339E-15  -1.02303943274108E-18   1.08285136415587E-17  -7.07097705806764E-21   1.18687863678447E-15
      1.34542305529912E-17   2.81896791993277E-16  -1.30137097095739E-17   2.59401153146239E-15  -1.02303591117185E-18
      1.10197301981415E-16  -1.30125722390664E-17   1.10198299254355E-16  -1.30121154058742E-17   0.00000000000000E+00
      4.34198096929349E-17  -2.65558598977794E-15  -1.73951219782684E-17  -1.21330840184788E-16  -1.02401744393364E-18
     -1.21157598971972E-16  -1.02399428894296E-18  -2.63451191107005E-15  -1.73931430496301E-17   1.48359829598058E-16
      1.94395065065633E-17
      1.00000000000000E+06
      5.18929804538876E-40   3.92108401292776E-42   6.96428571428571E-01  -3.35666956440624E-39   0.00000000000000E+00
      1.43848547452821E-17   1.86589126837388E-19  -2.56552611185291E-20  -7.44377208891020E-19  -1.39728370799412E-17
     -5.09260321506681E-17  -3.81697500010479E-19  -3.18388226285801E-19  -2.56560305882132E-20   0.00000000000000E+00
      1.40859844952041E-17  -4.55698081913810E-18  -1.39726632725778E-17  -9.33689925554254E-17  -3.81680461732350E-19
      1.19890735366003E-18  -1.39729241369078E-17   1.19888115863935E-18  -1.39724364495992E-17   0.00000000000000E+00
      2.99049630293337E-17  -2.73409609214174E-17  -1.95960243859784E-18  -3.05727033991359E-18  -3.81614815742488E-19
     -3.08307003734789E-18  -3.81582787039353E-19  -2.73625221342360E-17  -1.95976820150078E-18   0.00000000000000E+00
      2.72293686183802E-18
      1.00000000000000E+06
      8.34866118494466E-33   1.62723337765139E-33   5.57142857142857E-01   1.46245839214853E-34   0.00000000000000E+00
      1.46713925793804E-17  -4.98048179491382E-19  -3.16023876897358E-20  -1.83458200959325E-19  -1.44254425347631E-17
     -1.37529805977065E-19  -3.27461653716000E-19  -4.79003285887882E-19  -3.16026285494958E-20   0.00000000000000E+00
      1.46166523529146E-17  -2.81645380321962E-19  -1.44249737910667E-17   9.41546242421762E-18  -3.27436191495158E-19
     -2.42177542532470E-19  -1.44255407657298E-17  -2.42158755533194E-19  -1.44250017041596E-17   0.00000000000000E+00
      3.02436750076080E-17  -6.21482976478978E-18  -1.39313253749385E-18  -1.48009269818520E-18  -3.27262711972427E-19
     -1.49958351579680E-18  -3.27233189928365E-19  -6.34031484257833E-18  -1.39352187495273E-18   1.48359829598058E-16
      2.04855911305198E-18
      1.00000000000000E+06
     -2.69342037231638E-34   1.14035047148625E-34   4.17857142857143E-01   1.86410200135751E-35   0.00000000000000E+00
      1.53520061877790E-17  -4.14666334725321E-16  -3.69111154506350E-20  -6.37777921657430E-19  -1.48877720248738E-17
      4.66511935534121E-18  -3.01809311732991E-19  -4.14469754225818E-16  -3.69104935223766E-20   1.48359829598058E-16
      1.54879438214857E-17  -1.08787158732810E-18  -1.48870375448221E-17   4.52652881546068E-18  -3.01771955784959E-19
     -5.77846373093776E-19  -1.48880899711938E-17  -5.77793472350391E-19  -1.48874933011864E-17   0.00000000000000E+00
      3.10002589569616E-17  -4.46745786576455E-18  -1.22467568462008E-18  -1.10853267303794E-18  -3.01610925016857E-19
     -1.11654064673937E-18  -3.01583157509121E-19  -4.45260180592515E-18  -1.22508138695351E-18   0.00000000000000E+00
      1.82828419280432E-18
      1.00000000000000E+06
      4.80072208759588E-36   8.39288339172802E-36   2.78571428571429E-01  -1.20968535146721E-38   2.19869267464323E-13
      1.56985076508068E-17  -2.21081305511246E-13  -4.25893352864748E-20  -9.55472742067183E-19  -1.54045279648708E-17
      5.61075920306390E-18  -2.84215137725762E-19  -2.21080788035719E-13  -4.25894587818966E-20   2.26248740137039E-13
      1.56765007627377E-17  -9.56996352160739E-19  -1.54038852166145E-17   1.89378084533524E-18  -2.84190224616094E-19
     -8.36099436029171E-19  -1.54047193995392E-17  -8.36012368623694E-19  -1.54040576353548E-17   0.00000000000000E+00
      3.19191127580802E-17  -3.48339044880479E-18  -1.11033571293445E-18  -9.28786479630136E-19  -2.83987784875665E-19
     -9.33378458998617E-19  -2.83961155589282E-19  -3.48496309658307E-18  -1.11078745139475E-18   0.00000000000000E+00
      1.67904212756082E-18
      1.00000000000000E+06
     -8.17574385974076E-33  -3.25370127410343E-33   1.39285714285714E-01   1.24444947171693E-37   1.11386631384437E-10
      1.62441920834838E-17  -1.11387201001303E-10  -4.93860096886764E-20  -1.19202179029917E-18  -1.60380347274468E-17
     -2.92456653245921E-19  -2.72197424774694E-19  -1.11387200504449E-10  -4.93866838130290E-20   1.11385296145971E-10
      1.61518881400127E-17  -1.30810650740349E-18  -1.60373860516032E-17   5.15408607187307E-18  -2.72178636138953E-19
     -1.08661921793581E-18  -1.60381771202355E-17  -1.08649002077762E-18  -1.60374282945065E-17   0.00000000000000E+00
      3.30988260326723E-17  -2.83701307793147E-18  -1.02322061714201E-18  -1.30242077263823E-18  -2.71913843186465E-19
     -1.23931355577880E-18  -2.71887229212178E-19  -3.36977907261092E-18  -1.02376817625300E-18   0.00000000000000E+00
      1.57478598361901E-18
      1.00000000000000E+06
     -1.81753535240243E-32  -5.61107279492671E-33   5.42101086242752E-20  -4.32133251236221E-38   5.06742287737213E-08
      1.72610447936401E-17  -5.06742298352995E-08  -5.83939161160959E-20  -1.25980714478766E-18  -1.69980362355103E-17
     -3.88153823393958E-18  -2.63849089569123E-19  -5.06742298357992E-08  -5.84171080315668E-20   5.06742280319221E-08
      1.67472115542803E-17  -1.10692260902376E-18  -1.69978902068789E-17  -6.01692343488113E-18  -2.63853418628992E-19
     -1.44559506616867E-18  -1.69983350460634E-17  -1.44539151737123E-18  -1.69974428435756E-17   1.48359829598058E-16
      3.49437791791929E-17  -2.34087067763524E-18  -9.48001290869239E-19  -1.07707929689959E-18  -2.63452998451589E-19
     -1.20679468279419E-18  -2.63428345520288E-19  -3.98366754408431E-18  -9.48789734848984E-19   1.48359829598058E-16
      1.47516252419506E-18
      1.00000000000000E+06
     -2.05242667159045E-34   3.74716902695345E-36  -1.39285714285714E-01  -3.96475630477375E-42   1.45880327698737E-05
      2.03601439603536E-17  -1.45880327685225E-05   5.94418408990566E-19   2.17703499332212E-17  -2.08031200870319E-17
     -1.30015094820288E-18  -2.62718213017806E-19  -1.45880327684970E-05   5.85345137954116E-19   1.45880327663130E-05
      1.94829014913389E-17  -3.45295472490083E-17  -2.08043493065879E-17  -2.13007251048557E-18  -2.62750814607713E-19
     -4.77303092214588E-18  -2.08035322907811E-17  -4.77257419422317E-18  -2.08023208492812E-17   0.00000000000000E+00
      4.24771637125754E-17  -1.89975359444990E-18  -8.71310572194249E-19  -5.15927567361958E-19  -2.61970541683457E-19
     -3.44102894512841E-19  -2.61945989974405E-19  -2.06138759465979E-18  -8.72793947556292E-19   0.00000000000000E+00
      1.39747394533202E-18
      1.00000000000000E+06
     -1.92107391064210E-36  -3.08050468209794E-37  -2.78571428571429E-01   2.13260037571588E-41   2.13740845661475E-04
      2.44410120237445E-17  -2.13740845662193E-04   6.79600907641509E-18   7.27087298509866E-17  -3.18383465592059E-17
     -1.29008639378755E-17  -2.95328148824794E-19  -2.13740845662352E-04   6.31998649533283E-18   2.13740845668596E-04
      2.16245264779492E-17  -2.74061242641411E-17  -3.18564271304465E-17  -8.35145997217760E-19  -2.95486817881959E-19
     -1.71186991847383E-17  -3.18354069552648E-17  -1.71178070747943E-17  -3.18338742322997E-17   0.00000000000000E+00
      6.44201101736817E-17  -1.39060749493872E-18  -7.50829017427772E-19  -1.10464527711962E-17  -2.92650411598704E-19
     -1.02777404049413E-17  -2.92621168321132E-19  -6.91191179178235E-19  -7.56105077028483E-19   0.00000000000000E+00
      1.34180685996667E-18
      1.00000000000000E+06
      5.59070641929720E-34  -7.71886134868417E-33  -4.17857142857143E-01  -2.96564959407964E-38   4.63029844364095E-04
      2.77579650535501E-17  -4.63029844352892E-04   1.19088053370839E-17   1.33361913516219E-17  -3.66010326668429E-17
      4.33565189899450E-18  -3.51600909870671E-19  -4.63029844353265E-04   1.07775103493381E-17   4.63029844356232E-04
      2.47603796216278E-17   3.67253047500815E-17  -3.66238220609085E-17   1.17857064162683E-18  -3.51702065900259E-19
     -1.87275993624287E-17  -3.66257856359996E-17  -1.87267362928899E-17  -3.66242856166649E-17   0.00000000000000E+00
      7.38559248560109E-17  -9.11399468432198E-19  -6.05852879632394E-19  -3.26517969138885E-16  -3.42844896328172E-19
     -3.40716151051077E-16  -3.42807919713593E-19  -1.42174824536470E-17  -6.23527042062837E-19   0.00000000000000E+00
      1.30658442037333E-18
      1.00000000000000E+06
      1.00552143934170E-35  -3.85415509428831E-35  -5.57142857142857E-01  -2.90004072162485E-40   6.70638740966141E-04
      2.84788300989446E-17  -6.70638740983783E-04   1.50665275530917E-17  -1.79989421525345E-16  -3.91051120472898E-17
     -1.87925439459517E-19  -4.03440335150525E-19  -6.70638740965346E-04   1.46825147725858E-17   6.70638740971185E-04
      2.77870782976512E-17   4.25066819102182E-17  -3.91094782715713E-17  -1.07806894562014E-18  -4.03379822148558E-19
     -1.89384462316264E-17  -3.91380012666415E-17  -1.89377372102746E-17  -3.91366615827404E-17   0.00000000000000E+00
      7.87562009685276E-17  -5.46092051132332E-19  -4.81538354791235E-19   7.78004418486043E-16  -3.91291984175694E-19
      8.29922889967621E-16  -3.91248536146500E-19   6.98820899760430E-18  -5.05891463113990E-19   0.00000000000000E+00
      1.28604518668457E-18
      1.00000000000000E+06
     -2.21487504347405E-34   1.68218088232725E-34  -6.96428571428571E-01   4.14329677209456E-37   8.41688511698466E-04
      2.27702317332773E-17  -8.41688511674304E-04   1.32466271049524E-17   4.14608686889401E-16  -4.06277292347950E-17
     -1.76423391109778E-18  -4.26846985045196E-19  -8.41688511786772E-04   3.88116370890033E-17   8.41688511740749E-04
      6.22405544151801E-17  -3.78183293003783E-16  -4.03576075983115E-17  -1.59763405875961E-17  -4.26903814586262E-19
     -1.86835918650341E-17  -4.06164278345951E-17  -1.86830437110668E-17  -4.06152757786505E-17   0.00000000000000E+00
      8.16454868203493E-17  -3.67106279384926E-19  -4.13783844891536E-19  -6.87892475650477E-16  -4.17114905369761E-19
     -6.84328597490120E-16  -4.17066369775348E-19  -7.05726282954466E-18  -4.33294427553533E-19   0.00000000000000E+00
      1.27083692572603E-18
      1.00000000000000E+06
     -2.69577192593976E-36   2.08582587443331E-37  -8.35714285714286E-01  -3.97291358142353E-39   9.85305536371350E-04
      2.78265654371882E-17  -9.85305536345403E-04   1.78495138637784E-17  -2.81162490692051E-16  -4.15633108782751E-17
     -1.94104243437809E-18  -4.36650223875825E-19  -9.85305536361661E-04   2.14325534292500E-17   9.85305536372091E-04
      3.27711250180900E-17  -1.00897264631786E-15  -4.15342062985025E-17  -8.65026230362091E-18  -4.36638238268563E-19
     -1.83379428811636E-17  -4.15821293466538E-17  -1.83375372405364E-17  -4.15811575451239E-17   0.00000000000000E+00
      8.35364316420829E-17  -2.63330307233037E-19  -3.73144857480000E-19  -1.21306622432152E-15  -4.29947046713806E-19
     -1.21101358255311E-15  -4.29895155147069E-19  -9.12023956746956E-18  -3.86497254170197E-19   0.00000000000000E+00
      1.24758324541293E-18
      1.00000000000000E+06
      6.24415041557257E-34   1.67715734054937E-33  -9.75000000000000E-01  -1.56835819815237E-37   1.10830257472682E-03
      2.64816308578115E-17  -1.10830257470606E-03   1.77293604688773E-17  -1.30306160257936E-16  -4.22634825047508E-17
     -1.25128005522356E-18  -4.42574003216614E-19  -1.10830257471369E-03   1.27728486758876E-17   1.10830257470590E-03
      2.01929806509550E-17  -1.91402571427412E-17  -4.22928716853583E-17  -2.69923263667032E-18  -4.42465613364259E-19
     -1.80088163313221E-17  -4.22719455850441E-17  -1.80085277147476E-17  -4.22711398587616E-17   0.00000000000000E+00
      8.48854288896621E-17  -1.85164873709561E-19  -3.42344297656548E-19  -8.11176542662069E-16  -4.38129235531080E-19
     -7.83964720714848E-16  -4.38075111016185E-19  -6.03070061359261E-18  -3.51213033315246E-19   0.00000000000000E+00
      1.22902898419984E-18
}
