DF-ISE text

Info {
  version   = 1.0
  type      = xyplot
  datasets  = [
    "frequency"
    "v(d)" "v(s)" "v(g)" "v(b)" "a(d,d)"
    "c(d,d)" "a(d,s)" "c(d,s)" "a(d,g)" "c(d,g)"
    "a(d,b)" "c(d,b)" "a(s,d)" "c(s,d)" "a(s,s)"
    "c(s,s)" "a(s,g)" "c(s,g)" "a(s,b)" "c(s,b)"
    "a(g,d)" "c(g,d)" "a(g,s)" "c(g,s)" "a(g,g)"
    "c(g,g)" "a(g,b)" "c(g,b)" "a(b,d)" "c(b,d)"
    "a(b,s)" "c(b,s)" "a(b,g)" "c(b,g)" "a(b,b)"
    "c(b,b)" ]
  functions = [
    Frequency
    Voltage Voltage Voltage Voltage Admittance
    Capacitance Admittance Capacitance Admittance Capacitance
    Admittance Capacitance Admittance Capacitance Admittance
    Capacitance Admittance Capacitance Admittance Capacitance
    Admittance Capacitance Admittance Capacitance Admittance
    Capacitance Admittance Capacitance Admittance Capacitance
    Admittance Capacitance Admittance Capacitance Admittance
    Capacitance ]
}

Data {
      1.00000000000000E+06
     -2.33767391645151E-46  -5.17921129625567E-46  -9.75000000000000E-01   1.25245386753029E-49   0.00000000000000E+00
      1.26312514026316E-17   1.90949142658616E-18  -1.02422787105459E-20   5.40079105964343E-17  -1.25372224823779E-17
      2.78171960792487E-16  -5.71367083559149E-19   1.71023528977136E-18  -1.02423076675710E-20   0.00000000000000E+00
      1.27405760601090E-17   6.45858652099509E-17  -1.25373549504961E-17   4.20394035306795E-16  -5.71322062688521E-19
      2.37980221453001E-17  -1.25369156452268E-17   2.37971547176193E-17  -1.25368784622126E-17   0.00000000000000E+00
      3.33863701931244E-17  -6.76220327241107E-16  -8.31257628654658E-18  -2.70747236357359E-17  -5.71553672002338E-19
     -2.70393688601655E-17  -5.71510575143884E-19  -6.68903140497932E-16  -8.31209474533813E-18   0.00000000000000E+00
      9.45746327373869E-18
      1.00000000000000E+06
     -1.06681050246329E-36  -3.14553129614322E-38  -8.35714285714286E-01   7.45609391336679E-37   0.00000000000000E+00
      1.33868656855267E-17   9.46428872804435E-20  -1.90125445257881E-20  -4.82233330347482E-19  -1.30799191230149E-17
     -4.49681105743888E-19  -3.14352866076100E-19   1.00717467089963E-19  -1.90126345411202E-20   0.00000000000000E+00
      1.33220331724274E-17  -8.72334638624623E-19  -1.30799337248291E-17  -2.22024641242223E-18  -3.14319693710316E-19
     -2.64843414913067E-19  -1.30799449375421E-17  -2.65051769490050E-19  -1.30799103327129E-17   0.00000000000000E+00
      2.77992155344608E-17  -8.59120692148544E-18  -1.63936026542221E-18  -1.30508445301532E-18  -3.14313763402686E-19
     -1.28695658391342E-18  -3.14279142629956E-19  -8.51305123848897E-18  -1.63943993918391E-18   0.00000000000000E+00
      2.26732887286585E-18
      1.00000000000000E+06
      8.63910295306428E-34   5.13735359761067E-34  -6.96428571428571E-01   2.45365555575636E-35   0.00000000000000E+00
      1.39009222183863E-17   4.29349929314352E-19  -2.34138946742476E-20  -5.21904974484160E-19  -1.34475147923862E-17
      8.68444711378960E-18  -2.74974744199886E-19   1.23810499555686E-19  -2.34141280283452E-20   0.00000000000000E+00
      1.37357134738184E-17  -7.27958130279665E-19  -1.34475712155727E-17   4.83974622515375E-19  -2.74946508876840E-19
     -7.61658868089527E-19  -1.34476517463123E-17  -7.61846568824796E-19  -1.34476224872151E-17   0.00000000000000E+00
      2.81702645616813E-17  -3.66031733991334E-18  -1.27499032817808E-18  -8.63852991981419E-19  -2.74920041685337E-19
     -8.50901598415880E-19  -2.74888525369989E-19  -3.96372106184643E-18  -1.27510652460839E-18   0.00000000000000E+00
      1.82469931282810E-18
      1.00000000000000E+06
      6.29960533928065E-33   3.16347055206169E-33  -5.57142857142857E-01  -1.33023076548182E-34   1.48359829598058E-16
      5.75307266441775E-18  -1.00441878430960E-17  -2.72225093160066E-20  -2.44489405361538E-18  -1.38066406467642E-17
     -1.48552689689806E-16  -2.54238522416337E-19   7.48196977037949E-19  -2.72189050714349E-20   2.96719659196117E-16
      8.60485436747453E-18   6.00946364425201E-18  -1.38060142559639E-17  -4.24183423195379E-17  -2.54146752380815E-19
     -9.67082829892582E-19  -1.38021392013160E-17  -9.67268095869101E-19  -1.38021149469651E-17   0.00000000000000E+00
      2.87355979720315E-17  -2.68850822572096E-18  -1.13134382467293E-18  -6.36010498117571E-19  -2.54021285629328E-19
     -6.06188964954673E-19  -2.53991867227309E-19  -2.67883760541447E-18  -1.13146205464972E-18   0.00000000000000E+00
      1.63841727536952E-18
      1.00000000000000E+06
     -7.50580403925008E-34   3.44124903998881E-34  -4.17857142857143E-01  -5.44205533278751E-37   0.00000000000000E+00
      1.44886216950737E-17  -2.45726502437704E-17  -3.09132466483808E-20  -1.68542591621587E-18  -1.41603006571608E-17
     -3.18590011198876E-18  -2.39716226051188E-19  -2.49334525311010E-17  -3.09126079983499E-20   0.00000000000000E+00
      1.48263757290243E-17  -1.55296920824492E-18  -1.41600818979956E-17  -1.11146998742203E-18  -2.39682416714807E-19
     -1.12556654123638E-18  -1.41604104109287E-17  -1.12577298525274E-18  -1.41603908301948E-17   0.00000000000000E+00
      2.93542995202015E-17  -2.13264472533204E-18  -1.03349827986879E-18  -5.77621499228059E-19  -2.39654442144032E-19
     -5.18595413472400E-19  -2.39626480601162E-19  -2.15326815100174E-18  -1.03362232000351E-18   0.00000000000000E+00
      1.51374946230897E-18
      1.00000000000000E+06
     -4.19603357459357E-35  -8.80602032812525E-35  -2.78571428571429E-01  -2.23933919247519E-38   9.34666926467768E-15
      1.51021400031171E-17  -1.40954267800529E-14  -3.48612951687830E-20  -1.11631641871983E-18  -1.45514468886197E-17
      1.63874324769783E-18  -2.28987157314101E-19  -1.40949190479244E-14  -3.48608894232922E-20   7.86307096869710E-15
      1.52341895822042E-17  -1.55922277498163E-18  -1.45513393478723E-17  -1.47053874038249E-17  -2.28958385073670E-19
     -1.27402869822816E-18  -1.45517579053337E-17  -1.27423879143243E-18  -1.45517430222050E-17   0.00000000000000E+00
      3.00606783329719E-17  -1.75237634717015E-18  -9.57177404746660E-19  -1.38055665449957E-18  -2.28919976003892E-19
     -1.72598338159346E-18  -2.28893745506249E-19  -6.67916078656894E-18  -9.57320143175838E-19   0.00000000000000E+00
      1.41786633979631E-18
      1.00000000000000E+06
     -1.07055969122288E-32  -3.02890768488313E-33  -1.39285714285714E-01  -1.49109428185046E-37   7.77761570684861E-12
      1.48415056688065E-17  -7.77909854224400E-12  -3.96095322858636E-20  -1.47858611936631E-18  -1.50252933040047E-17
     -2.67761368875113E-19  -2.20170114011074E-19  -7.77909882423777E-12  -3.96074323843366E-20   7.77806078633741E-12
      1.53507741215485E-17  -1.70523782218910E-18  -1.50248090414453E-17   1.12640950042012E-18  -2.20132126358253E-19
     -1.44086068472896E-18  -1.50249658830926E-17  -1.44107678973798E-18  -1.50249571487881E-17   0.00000000000000E+00
      3.09402483671552E-17  -1.44366951828377E-18  -8.90325334732851E-19  -3.54695316441750E-19  -2.20063382281653E-19
     -4.09619455113727E-19  -2.20038526405333E-19  -1.53402037702843E-18  -8.90513826132506E-19   0.00000000000000E+00
      1.33152781308910E-18
      1.00000000000000E+06
     -2.25077444050104E-35   4.41846958772749E-36  -5.42101086242752E-20   1.31477503620083E-41   4.00422527301909E-09
      1.59200347077881E-17  -4.00422454715011E-09  -4.60200856166098E-20  -1.48076492376024E-18  -1.56899665081754E-17
     -4.77922367545254E-18  -2.14762420867789E-19  -4.00422454704779E-09  -4.60198798268780E-20   4.00422497629943E-09
      1.59414117170113E-17  -2.61322776489431E-18  -1.56899361789751E-17  -4.17505889315660E-18  -2.14737165686954E-19
     -1.66264565767621E-18  -1.56900714055412E-17  -1.66287560959499E-18  -1.56900723895793E-17   1.48359829598058E-16
      3.22155175607543E-17  -1.22226291515963E-18  -8.35373765554205E-19  -3.05916273213483E-19  -2.14617350026220E-19
     -2.02569835090883E-19  -2.14592931849066E-19  -1.19131200346625E-18  -8.35662941832793E-19   1.48359829598058E-16
      1.26428005451964E-18
      1.00000000000000E+06
      1.33615986604730E-35  -1.19660576077257E-35   1.39285714285714E-01   8.77849158908425E-42   1.72543401312258E-06
      1.88475818065314E-17  -1.72543401321726E-06  -6.55996998815223E-21  -2.68404095222316E-18  -1.71908925508465E-17
      2.65644211207504E-18  -2.13778572815459E-19  -1.72543401318786E-06  -7.44042181946614E-21   1.72543401252914E-06
      1.80980632900113E-17  -3.76398525076012E-18  -1.71929531597948E-17   3.11996714622345E-18  -2.13786101990414E-19
     -2.28871689262957E-18  -1.71942719664522E-17  -2.28897532903038E-18  -1.71942914416269E-17   1.48359829598058E-16
      3.51755053522750E-17  -1.06373361193585E-18  -7.86941908290635E-19   1.20051181320415E-17  -2.13553164056442E-19
      3.25260485244934E-17  -2.13528571211438E-19   1.72286720845696E-18  -7.87486361556470E-19   0.00000000000000E+00
      1.21691649199241E-18
      1.00000000000000E+06
      2.80045968375064E-34   5.88447198583444E-34   2.78571428571429E-01   5.61520733810454E-40   1.37202738812028E-04
      1.75867136637626E-18  -1.37202738794835E-04   2.05780697544729E-18  -5.87509886602634E-17  -2.60326268981072E-17
     -1.62671702355516E-18  -2.28971504373990E-19  -1.37202739849181E-04   4.98725681125856E-16   1.37202726955407E-04
      5.27208828527893E-15  -7.29428938061839E-14  -2.34530998802969E-18  -9.95779990154996E-16  -8.91627032603324E-20
     -1.03922478422533E-17  -2.59346244799741E-17  -1.03925775660205E-17  -2.59345994636712E-17   0.00000000000000E+00
      5.25802341980724E-17  -8.40407784814899E-19  -7.11010504855873E-19  -6.91412105860890E-17  -2.27455873558949E-19
     -6.87863912425291E-17  -2.27427237160409E-19  -2.26750010060128E-18  -7.12614150969145E-19   0.00000000000000E+00
      1.17053009349939E-18
      1.00000000000000E+06
     -8.72106071760234E-35  -3.61506413987538E-35   4.17857142857143E-01  -8.16112738322281E-39   4.53649212948955E-04
      2.34689803928470E-17  -4.53649212949836E-04   9.84749873643844E-18   7.51594346360787E-17  -3.18862325700989E-17
     -3.22982289448750E-18  -2.77475943629471E-19  -4.53649212948676E-04   8.02165940011091E-18   4.53649212953406E-04
      1.82092235905987E-17   4.29904756226984E-17  -3.19166023963949E-17   3.41745670837446E-19  -2.77668490157126E-19
     -1.39166252703759E-17  -3.18945390643583E-17  -1.39167986055074E-17  -3.18942169643799E-17   0.00000000000000E+00
      6.43625369492714E-17  -4.99540635644926E-19  -5.73782397208865E-19   2.57110708830663E-15  -2.74284628509770E-19
      2.92328836177506E-15  -2.74242989622541E-19   1.92273929069450E-17  -5.80285523531371E-19   1.48359829598058E-16
      1.10614272502100E-18
      1.00000000000000E+06
     -2.45632947678790E-33  -1.86293377470153E-33   5.57142857142857E-01  -5.77602906905861E-37   6.96540525799648E-04
      1.97723745404291E-17  -6.96540525673855E-04   1.07663948983578E-17   8.76512895035433E-16  -3.42064813971175E-17
      6.00303701358352E-18  -3.33424218525797E-19  -6.96540525668948E-04   1.47839869439483E-17   6.96540525800835E-04
      2.70741962934188E-17   1.73526159765484E-16  -3.41666619314500E-17   2.55168781986473E-18  -3.33175977374169E-19
     -1.44829755935348E-17  -3.41965737161601E-17  -1.44829470438146E-17  -3.41959454908408E-17   0.00000000000000E+00
      6.88327282906038E-17  -2.19536229298067E-19  -4.40209071876341E-19  -2.74520647121229E-15  -3.29076247906356E-19
     -2.47994160496992E-15  -3.29022499554959E-19  -1.09397986152342E-17  -4.48773570100713E-19   0.00000000000000E+00
      1.11083151849896E-18
      1.00000000000000E+06
     -1.91438678675459E-33   8.56909091751608E-35   6.96428571428571E-01  -1.31074182811568E-36   8.76794410555326E-04
      6.40079758994089E-17  -8.76794406749990E-04   4.29083049571682E-17   9.61570071285175E-15  -3.52086507864222E-17
      1.21116238350567E-17  -3.57447642799327E-19  -8.76794408415297E-04  -8.85199972107060E-18   8.76794408361530E-04
     -1.12657362852196E-17   4.73069266737625E-16  -3.55641970940281E-17  -4.58905188112451E-18  -3.58517622651646E-19
     -1.45011433053072E-17  -3.54149115665392E-17  -1.45009675115935E-17  -3.54140472199697E-17   0.00000000000000E+00
      7.12044166607392E-17  -1.10160290842216E-19  -3.75460761358875E-19   3.80344967485974E-15  -3.54862508252053E-19
      3.97972077857242E-15  -3.54800807470098E-19   8.06692525157801E-18  -3.81816327251213E-19   1.48359829598058E-16
      1.09568267638164E-18
      1.00000000000000E+06
      1.10597416247572E-35  -5.37271610481151E-36   8.35714285714286E-01   3.90722086878693E-38   1.01709027109425E-03
     -1.78561179542402E-16  -1.01709027224743E-03  -1.43192864515733E-16  -1.41504487501276E-15  -3.70725091629440E-17
      5.33863693600718E-18  -3.72371599400150E-19  -1.01709027127749E-03  -1.50548978697624E-16   1.01709027160861E-03
     -1.94353148967666E-16  -4.59589387019517E-15  -3.70917185930533E-17  -1.24857203106343E-19  -3.72653373631274E-19
     -1.44685089959033E-17  -3.62497551982905E-17  -1.44682176017059E-17  -3.62487010126153E-17   0.00000000000000E+00
      7.28380970186601E-17  -5.96862883004051E-20  -3.39648113399149E-19   2.40480891702812E-15  -3.68413202250547E-19
      2.42338488530406E-15  -3.68346334018217E-19   4.41845702630979E-18  -3.44069915628247E-19   0.00000000000000E+00
      1.08030949694126E-18
      1.00000000000000E+06
      5.67704619864464E-34   2.19303096059345E-34   9.75000000000000E-01  -3.95412239759785E-39   1.13081183795081E-03
      4.13128059196620E-17  -1.13081183789098E-03   3.15613052005112E-17   1.12369331946739E-16  -3.68513956827951E-17
     -6.41344383370690E-19  -3.79978366661344E-19  -1.13081183802035E-03  -1.80892815703889E-17   1.13081183788790E-03
     -1.84881513096023E-17  -5.63604447804817E-16  -3.70553201436139E-17  -7.45422190740783E-19  -3.80302554506668E-19
     -1.44706330687265E-17  -3.69210011667927E-17  -1.44702474075979E-17  -3.69197863830797E-17   0.00000000000000E+00
      7.41544433124531E-17  -2.67060123805212E-20  -3.13673564168993E-19  -1.00033641336009E-15  -3.78558227739437E-19
     -1.11525380522987E-15  -3.78487978420797E-19  -4.22103278761815E-18  -3.16762342848899E-19   0.00000000000000E+00
      1.07285775923646E-18
}
