DF-ISE text

Info {
  version   = 1.0
  type      = xyplot
  datasets  = [
    "pdrain OuterVoltage" "pdrain TotalCurrent" "psource OuterVoltage" "psource TotalCurrent" "substrate OuterVoltage" "pgate OuterVoltage" ]
  functions  = [
    OuterVoltage TotalCurrent OuterVoltage TotalCurrent OuterVoltage OuterVoltage ]
}

Data {
-0.05 -5.84914673552e-5 0.0 5.84918106001e-5 0.0 -0.9
-0.05 -5.36593949797e-5 0.0 5.36596350838e-5 0.0 -0.8
-0.05 -4.80426955816e-5 0.0 4.80428076123e-5 0.0 -0.7
-0.05 -4.13735732664e-5 0.0 4.13735179382e-5 0.0 -0.6
-0.05 -3.32812728893e-5 0.0 3.32810053954e-5 0.0 -0.5
-0.05 -2.33728720657e-5 0.0 2.33723080091e-5 0.0 -0.4
-0.05 -1.18880031399e-5 0.0 1.18873991065e-5 0.0 -0.3
-0.05 -2.39878393825e-6 0.0 2.39867335876e-6 0.0 -0.2
-0.05 -6.97590091897e-8 0.0 6.9756829192e-8 0.0 -0.1
-0.05 -8.75646941082e-10 0.0 8.7562111266e-10 0.0 0
-0.05 -9.91808144635e-12 0.0 9.91778540999e-12 0.0 0.1
-0.05 -1.08317545432e-13 0.0 1.0831407604e-13 0.0 0.2
-0.05 -1.15604349649e-15 0.0 1.1559557108e-15 0.0 0.3
}
