DF-ISE text

Info {
  version   = 1.0
  type      = xyplot
  datasets  = [
    "pdrain OuterVoltage" "pdrain TotalCurrent" "psource OuterVoltage" "psource TotalCurrent" "substrate OuterVoltage" "pgate OuterVoltage" ]
  functions  = [
    OuterVoltage TotalCurrent OuterVoltage TotalCurrent OuterVoltage OuterVoltage ]
}

Data {
-0.9 -0.000146669028617 0.0 0.000146623527642 0.0 -0.9
-0.9 -0.000122589539053 0.0 0.000122546982621 0.0 -0.8
-0.9 -9.90755795249e-5 0.0 9.90390491815e-5 0.0 -0.7
-0.9 -7.63049838658e-5 0.0 7.62768391653e-5 0.0 -0.6
-0.9 -5.45698590712e-5 0.0 5.45513411845e-5 0.0 -0.5
-0.9 -3.43854647052e-5 0.0 3.43759077553e-5 0.0 -0.4
-0.9 -1.67840314526e-5 0.0 1.67808002771e-5 0.0 -0.3
-0.9 -4.20694452403e-6 0.0 4.20649822153e-6 0.0 -0.2
-0.9 -1.93880729982e-7 0.0 1.93867711672e-7 0.0 -0.1
-0.9 -2.7937324084e-9 0.0 2.79353987141e-9 0.0 0
-0.9 -3.29932427996e-11 0.0 3.29910891506e-11 0.0 0.1
-0.9 -3.65702253777e-13 0.0 3.65671952011e-13 0.0 0.2
-0.9 -3.90971760534e-15 0.0 3.90929676755e-15 0.0 0.3
}
