DF-ISE text

Info {
  version   = 1.0
  type      = xyplot
  datasets  = [
    "ndrain OuterVoltage" "ndrain TotalCurrent" "nsource OuterVoltage" "nsource TotalCurrent" "substrate OuterVoltage" "ngate OuterVoltage" ]
  functions  = [
    OuterVoltage TotalCurrent OuterVoltage TotalCurrent OuterVoltage OuterVoltage ]
}

Data {
0.05 1.2493885444e-11 0.0 -1.24924651537e-11 0.0 -0.3
0.05 1.81621726519e-10 0.0 -1.81602525388e-10 0.0 -0.2
0.05 2.60100264525e-9 0.0 -2.60073590999e-9 0.0 -0.1
0.05 3.6131776842e-8 0.0 -3.61279556914e-8 0.0 0
0.05 4.48841600511e-7 0.0 -4.48789261007e-7 0.0 0.1
0.05 3.46443045775e-6 0.0 -3.46396390755e-6 0.0 0.2
0.05 1.16881324989e-5 0.0 -1.16867678766e-5 0.0 0.3
0.05 2.23094349514e-5 0.0 -2.23080621106e-5 0.0 0.4
0.05 3.19507633592e-5 0.0 -3.19500172227e-5 0.0 0.5
0.05 3.98184985175e-5 0.0 -3.98182732924e-5 0.0 0.6
0.05 4.62117896118e-5 0.0 -4.62119685654e-5 0.0 0.7
0.05 5.15314658647e-5 0.0 -5.15319927068e-5 0.0 0.8
0.05 5.60760210131e-5 0.0 -5.60768599869e-5 0.0 0.9
}
