DF-ISE text

Info {
  version   = 1.0
  type      = xyplot
  datasets  = [
    "ndrain OuterVoltage" "ndrain TotalCurrent" "nsource OuterVoltage" "nsource TotalCurrent" "substrate OuterVoltage" "ngate OuterVoltage" ]
  functions  = [
    OuterVoltage TotalCurrent OuterVoltage TotalCurrent OuterVoltage OuterVoltage ]
}

Data {
0.9 2.33002525288e-11 0.0 -2.32944179156e-11 0.0 -0.3
0.9 3.41281857785e-10 0.0 -3.41207823047e-10 0.0 -0.2
0.9 4.89993217895e-9 0.0 -4.89900021265e-9 0.0 -0.1
0.9 6.72683085618e-8 0.0 -6.72572107639e-8 0.0 0
0.9 7.77831219792e-7 0.0 -7.77700949378e-7 0.0 0.1
0.9 4.9902105004e-6 0.0 -4.98904441117e-6 0.0 0.2
0.9 1.48516747524e-5 0.0 -1.48465385377e-5 0.0 0.3
0.9 2.8578074875e-5 0.0 -2.85658328686e-5 0.0 0.4
0.9 4.44339665208e-5 0.0 -4.4412199199e-5 0.0 0.5
0.9 6.1550416651e-5 0.0 -6.15181957234e-5 0.0 0.6
0.9 7.9495687762e-5 0.0 -7.9453390476e-5 0.0 0.7
0.9 9.80335316995e-5 0.0 -9.79820822102e-5 0.0 0.8
0.9 0.000117024996165 0.0 -0.000116965195479 0.0 0.9
}
