DF-ISE text

Info {
  version   = 1.0
  type      = xyplot
  datasets  = [
    "frequency"
    "v(d)" "v(s)" "v(g)" "v(b)" "a(d,d)"
    "c(d,d)" "a(d,s)" "c(d,s)" "a(d,g)" "c(d,g)"
    "a(d,b)" "c(d,b)" "a(s,d)" "c(s,d)" "a(s,s)"
    "c(s,s)" "a(s,g)" "c(s,g)" "a(s,b)" "c(s,b)"
    "a(g,d)" "c(g,d)" "a(g,s)" "c(g,s)" "a(g,g)"
    "c(g,g)" "a(g,b)" "c(g,b)" "a(b,d)" "c(b,d)"
    "a(b,s)" "c(b,s)" "a(b,g)" "c(b,g)" "a(b,b)"
    "c(b,b)" ]
  functions = [
    Frequency
    Voltage Voltage Voltage Voltage Admittance
    Capacitance Admittance Capacitance Admittance Capacitance
    Admittance Capacitance Admittance Capacitance Admittance
    Capacitance Admittance Capacitance Admittance Capacitance
    Admittance Capacitance Admittance Capacitance Admittance
    Capacitance Admittance Capacitance Admittance Capacitance
    Admittance Capacitance Admittance Capacitance Admittance
    Capacitance ]
}

Data {
      1.00000000000000E+06
      4.26032307258675E-46  -6.40627636500288E-47  -6.50000000000000E-01  -2.77872210634565E-48   0.00000000000000E+00
      1.37749655994222E-17  -4.97646633586209E-17  -9.42959057374662E-20  -8.28094469513586E-19  -1.33339501740649E-17
     -1.24570376526617E-19  -2.73324508919300E-19  -4.99151706500164E-17  -9.42956396555132E-20   1.48359829598058E-16
      1.38097495548645E-17  -6.45251181859472E-19  -1.33338860388000E-17  -8.49985796536592E-19  -2.73290942731779E-19
     -7.14437013128344E-19  -1.33340626774099E-17  -7.14649565121554E-19  -1.33340370683097E-17   0.00000000000000E+00
      2.76547210856518E-17  -3.90687905044612E-18  -9.86621340452575E-19  -4.21212798339349E-19  -2.73268015319445E-19
     -4.87391514370641E-19  -2.73234643415028E-19  -1.31307925955545E-18  -9.86735377906243E-19   0.00000000000000E+00
      1.53396650749880E-18
      1.00000000000000E+06
      7.49344460444953E-34   4.65920243891665E-35  -5.57142857142857E-01  -4.00252602610442E-37   0.00000000000000E+00
      1.39010475374160E-17  -1.03154729085501E-15  -1.00720030096201E-19  -9.63482164018012E-19  -1.35543354628196E-17
     -1.10862925776262E-18  -2.60606413166620E-19  -1.03134460362339E-15  -1.00719371553191E-19   0.00000000000000E+00
      1.39872914744432E-17  -9.43881372316071E-19  -1.35542418371789E-17  -9.37013534462026E-19  -2.60572679781663E-19
     -8.69270099950223E-19  -1.35543858141132E-17  -8.69483800739582E-19  -1.35543635635966E-17   0.00000000000000E+00
      2.80286605407553E-17  -3.27617545383544E-18  -9.19911163431139E-19  -9.37604457874615E-19  -2.60545201751085E-19
     -9.52542623505570E-19  -2.60513091344698E-19  -3.25862244234444E-18  -9.20031210074588E-19   0.00000000000000E+00
      1.44161443784182E-18
      1.00000000000000E+06
     -2.16786117229953E-32   8.43399092819315E-33  -4.64285714285714E-01   2.63343887700275E-35   1.67646607445806E-14
      1.41129270299901E-17  -2.08993224929546E-14  -1.07286315479638E-19  -1.04930008541078E-18  -1.37780767502581E-17
      5.95180049390505E-19  -2.50461292602482E-19  -2.08996856991730E-14  -1.07285880799886E-19   1.72097402333748E-14
      1.41663354143570E-17  -1.02966635718591E-18  -1.37780166928905E-17   1.87931291474660E-18  -2.50429185027838E-19
     -1.00023026364106E-18  -1.37781264648261E-17  -1.00044392691786E-18  -1.37781072933132E-17   0.00000000000000E+00
      2.84222968036357E-17  -2.81933232712868E-18  -8.66063046832287E-19  -8.55381632939701E-19  -2.50395448574281E-19
     -8.43350222698965E-19  -2.50364419104048E-19  -2.81681069460722E-18  -8.66194507006056E-19   0.00000000000000E+00
      1.36672702561898E-18
      1.00000000000000E+06
      1.03420211544506E-35  -8.29524203063331E-36  -3.71428571428571E-01   1.90697614838515E-38   4.27573028901604E-13
      1.59816784109592E-17  -4.16729385918751E-13  -1.14205887384895E-19  -1.65532199729432E-18  -1.40094374565177E-17
     -1.90711488692396E-16  -2.42169138375258E-19  -4.16736858523366E-13  -1.14206416819332E-19   4.22677154524868E-13
      1.59477928342295E-17   2.93639877404356E-19  -1.40094059044167E-17  -2.46009442390312E-17  -2.42140672060738E-19
     -1.11879308758011E-18  -1.40107075821944E-17  -1.11900717665304E-18  -1.40106913646697E-17   0.00000000000000E+00
      2.88418948350392E-17  -2.46438937811699E-18  -8.20495888560398E-19  -7.57339915081620E-19  -2.42124459768923E-19
     -7.94672926148782E-19  -2.42094426205276E-19  -2.47165986704285E-18  -8.20641192457843E-19   0.00000000000000E+00
      1.30596761276073E-18
      1.00000000000000E+06
      3.41323629238772E-32   1.05747955481270E-31  -2.78571428571429E-01   2.28489200817059E-35   8.15237263641331E-12
      1.45890198044508E-17  -8.15298680742466E-12  -1.21853373782924E-19  -1.18669332009132E-18  -1.42603802291562E-17
     -9.82103933976005E-19  -2.35410664503532E-19  -8.15298564198352E-12  -1.21853991572807E-19   8.15266935607251E-12
      1.45309412228938E-17  -1.10823813122191E-18  -1.42604185396263E-17  -8.39263203837233E-19  -2.35382502665523E-19
     -1.23280335183685E-18  -1.42604435757945E-17  -1.23301838215420E-18  -1.42604303852159E-17   0.00000000000000E+00
      2.93016498102711E-17  -2.17822306007579E-18  -7.80775863891113E-19  -7.00912313089476E-19  -2.35324226940148E-19
     -7.05179026402545E-19  -2.35295074652346E-19  -2.19136040456836E-18  -7.80946985781839E-19   0.00000000000000E+00
      1.25178102702442E-18
      1.00000000000000E+06
     -3.51691514780048E-34   5.36143738659940E-33  -1.85714285714286E-01   3.65517597933200E-36   1.55807493043881E-10
      1.48460430206721E-17  -1.55808439751662E-10  -1.30721172291516E-19  -1.42603996779040E-18  -1.45396649309828E-17
     -8.00224885728598E-19  -2.29736359491202E-19  -1.55808440271089E-10  -1.30719863593329E-19   1.55808679922518E-10
      1.49522152245347E-17  -1.31026027294676E-18  -1.45395622867811E-17  -2.34779112117087E-18  -2.29705642334079E-19
     -1.35065533549140E-18  -1.45397241794110E-17  -1.35087312217108E-18  -1.45397144107746E-17   0.00000000000000E+00
      2.98243836342155E-17  -1.93695197717405E-18  -7.44945043293736E-19  -6.60929658831298E-19  -2.29630954043349E-19
     -6.56912671170942E-19  -2.29602562410166E-19  -1.94209196494726E-18  -7.45153141236999E-19   0.00000000000000E+00
      1.20453145956438E-18
      1.00000000000000E+06
     -2.99617876363123E-32   2.59524357818161E-32  -9.28571428571429E-02  -6.45163254741917E-37   2.88820195561219E-09
      1.51977388476037E-17  -2.88820402058064E-09  -1.41736137002433E-19  -1.55350273583771E-18  -1.48687025063752E-17
      3.36778380973595E-19  -2.25026311918512E-19  -2.88820402060147E-09  -1.41731459510998E-19   2.88820195561219E-09
      1.54531722526488E-17  -1.45021178296752E-18  -1.48684302794948E-17  -1.61610426679403E-18  -2.24992620190312E-19
     -1.48262936105378E-18  -1.48687992455287E-17  -1.48285149465150E-18  -1.48687938214137E-17   1.48359829598058E-16
      3.04493520901432E-17  -1.72672873687534E-18  -7.11759023359387E-19  -3.10554301070217E-18  -2.24886156413549E-19
     -6.24781060656110E-18  -2.24857783391434E-19  -1.65395841002657E-17  -7.11999811597675E-19  -3.70899573995146E-15
      1.18159856361102E-18
      1.00000000000000E+06
     -7.07587536935067E-33   2.26982936580464E-32  -5.42101086242752E-20   5.64529240760669E-37   5.12682297824284E-08
      1.56830715245848E-17  -5.12682291534658E-08  -1.56302088111461E-19  -1.75733335378835E-18  -1.52884199066540E-17
      1.61145250237651E-18  -2.21472172993712E-19  -5.12682291538000E-08  -1.56300563359837E-19   5.12682291889891E-08
      1.57061406084289E-17  -2.30698724652253E-18  -1.52883857403410E-17   2.04241530391071E-18  -2.21443927194465E-19
     -1.64708715670001E-18  -1.52886160898910E-17  -1.64731687738753E-18  -1.52886167951269E-17   1.48359829598058E-16
      3.12580054957961E-17  -1.54405105059032E-18  -6.80772610813964E-19  -4.27581500927767E-18  -2.21296184305319E-19
     -4.70930190333720E-18  -2.21268655524834E-19  -1.44880280449178E-17  -6.81124601801077E-19   0.00000000000000E+00
      1.12395652463735E-18
      1.00000000000000E+06
      7.63197369328307E-36   4.99975958215682E-36   9.28571428571429E-02  -7.57676195586727E-42   8.45215870338664E-07
      1.63669449541697E-17  -8.45215870413324E-07  -1.67444402680418E-19  -1.72287747270984E-18  -1.59149825599199E-17
     -8.20019695709109E-19  -2.19552666214882E-19  -8.45215870412697E-07  -1.67605428496215E-19   8.45215871377182E-07
      1.61330991233509E-17  -2.00017629661633E-18  -1.59154089188281E-17  -6.17878247173722E-19  -2.19531359245022E-19
     -1.90528094746931E-18  -1.59153450500577E-17  -1.90552430703200E-18  -1.59153550823410E-17   0.00000000000000E+00
      3.24821330970487E-17  -1.38759568817976E-18  -6.51432964663686E-19  -2.10484990196948E-18  -2.19305627238818E-19
     -1.85900631765747E-18  -2.19278176196661E-19  -5.85941966068522E-18  -6.51930031258813E-19   0.00000000000000E+00
      1.09082730136274E-18
      1.00000000000000E+06
     -1.15976282696286E-34   4.56383513741674E-35   1.85714285714286E-01   8.54511770787482E-41   1.15690615432156E-05
      1.76648110605098E-17  -1.15690615438719E-05   6.80046901761037E-21  -4.28721224862408E-18  -1.72061278707766E-17
     -3.51852959316044E-19  -2.20328201599741E-19  -1.15690615438662E-05   5.97303067486628E-21   1.15690615452926E-05
      1.75769203503740E-17  -1.86035676802232E-18  -1.72063804446163E-17   6.33794142003038E-20  -2.20303056431008E-19
     -2.59715589007173E-18  -1.72071284560564E-17  -2.59742484007844E-18  -1.72071509581616E-17   0.00000000000000E+00
      3.50356402812812E-17  -1.24770405394192E-18  -6.21360866923710E-19  -1.38551773747971E-18  -2.19954379062957E-19
     -1.88450536677675E-18  -2.19926715846863E-19  -2.18758848937538E-18  -6.22120260390525E-19   1.48359829598058E-16
      1.06320968199193E-18
      1.00000000000000E+06
      7.50423875965101E-34   1.04638637719501E-33   2.78571428571429E-01  -6.16201280614312E-40   8.70940295808976E-05
      1.87329186210049E-17  -8.70940295812041E-05   1.55129197750142E-18   3.11715672498176E-18  -2.01970105178098E-17
     -2.00339874056910E-18  -2.27046960305184E-19  -8.70940295811603E-05   1.55092889746586E-18   8.70940295816394E-05
      1.87271457014355E-17  -4.24283571375850E-18  -2.01970190167375E-17  -4.52389589564735E-19  -2.27017738613756E-19
     -4.84339966752113E-18  -2.01971432115025E-17  -4.84370268582325E-18  -2.01971567753598E-17   1.48359829598058E-16
      4.09777019836977E-17  -1.09695578057679E-18  -5.83402009183185E-19   4.28267153600161E-17  -2.26381562783136E-19
      5.82241259367002E-17  -2.26351947510099E-19  -1.90920289772318E-18  -5.84727470025385E-19   0.00000000000000E+00
      1.03611110237913E-18
      1.00000000000000E+06
     -1.87757658815955E-35  -1.04618840280630E-34   3.71428571428571E-01   2.10098779161434E-40   2.53327725863463E-04
     -3.67776469525093E-18  -2.53327725850858E-04  -3.58126297591179E-19   4.26985256743612E-16  -2.35558424796350E-17
     -8.82072680276346E-18  -2.44627973857352E-19  -2.53327725854950E-04   3.11354529807495E-18   2.53327725877706E-04
      1.25576995735877E-17  -1.04317243864485E-18  -2.34623348867158E-17   2.01305107499241E-17  -2.43961944721746E-19
     -7.29362752179341E-18  -2.34256422178688E-17  -7.29391347350631E-18  -2.34255597489792E-17   0.00000000000000E+00
      4.73807673728957E-17  -9.10605413115580E-19  -5.29565797876832E-19   3.19953833650542E-16  -2.42432463666209E-19
      3.06000389248953E-16  -2.42397278314109E-19   1.11703887373955E-18  -5.32145320028268E-19   0.00000000000000E+00
      1.01501018370985E-18
      1.00000000000000E+06
     -3.34791495566957E-33  -9.78916089543784E-34   4.64285714285714E-01  -1.26227795030431E-37   4.22823400283123E-04
      1.09942326871866E-17  -4.22823400214706E-04   3.86309885999288E-18   1.90319820215171E-16  -2.54125725764543E-17
     -2.54678684653590E-17  -2.69875855450051E-19  -4.22823400242513E-04   1.57966614075409E-17   4.22823400219477E-04
      4.30147970552901E-17  -1.96530501460274E-17  -2.52062395248184E-17  -1.35161703691617E-17  -2.68435568442862E-19
     -8.45004464874245E-18  -2.53658324184734E-17  -8.45024979985518E-18  -2.53656076836634E-17   0.00000000000000E+00
      5.11937290199806E-17  -6.99622073640759E-19  -4.62288688527697E-19  -1.34096868271937E-15  -2.67375487547315E-19
     -1.36881560312955E-15  -2.67333281029931E-19  -1.74135958155921E-17  -4.66645689436508E-19   0.00000000000000E+00
      1.00033781549946E-18
      1.00000000000000E+06
      1.07190823635478E-35  -2.24536357298149E-35   5.57142857142857E-01   1.02650831611037E-38   5.64135406652407E-04
      2.39391368482742E-17  -5.64135406608421E-04   1.11226281063285E-17   2.37625587889876E-16  -2.65005057661395E-17
     -1.03684744076552E-17  -2.95300610968520E-19  -5.64135406628799E-04   1.09475507323402E-17   5.64135406605377E-04
      2.37003883029903E-17  -1.28631273615320E-16  -2.65019876731363E-17  -6.10002463719261E-18  -2.95251820574792E-19
     -8.98368034200909E-18  -2.65362582190376E-17  -8.98381737685664E-18  -2.65358907022586E-17   0.00000000000000E+00
      5.34706218549202E-17  -5.13603069555213E-19  -3.98471492230092E-19   5.48483435730229E-15  -2.92919719583996E-19
      5.50992207152456E-15  -2.92870909913009E-19   2.01663643121044E-17  -4.03620024254417E-19   0.00000000000000E+00
      9.92805849651081E-19
      1.00000000000000E+06
      8.81369841542308E-36  -3.92880570371155E-36   6.50000000000000E-01  -5.83528578897301E-40   6.80048726381523E-04
      2.60696064783801E-17  -6.80048726379073E-04   1.42034094976250E-17   2.01859564875548E-16  -2.72559239825209E-17
      2.71034841745861E-18  -3.13185022716470E-19  -6.80048726380052E-04   9.90315904018380E-18   6.80048726382116E-04
      1.92206024528950E-17  -4.67926649640349E-18  -2.72947551730458E-17  -3.30562292992206E-18  -3.13317897755855E-19
     -9.22170677413463E-18  -2.73031207021827E-17  -9.22175119536295E-18  -2.73026267720810E-17   0.00000000000000E+00
      5.49578100402200E-17  -3.87786326038063E-19  -3.52063138225535E-19  -1.09945738003153E-15  -3.11032115368946E-19
     -1.08709428529083E-15  -3.10977919698809E-19  -3.72492092057019E-18  -3.56797288264896E-19   0.00000000000000E+00
      9.78183624580670E-19
}
