DF-ISE text

Info {
  version   = 1.0
  type      = xyplot
  datasets  = [
    "frequency"
    "v(d)" "v(s)" "v(g)" "v(b)" "a(d,d)"
    "c(d,d)" "a(d,s)" "c(d,s)" "a(d,g)" "c(d,g)"
    "a(d,b)" "c(d,b)" "a(s,d)" "c(s,d)" "a(s,s)"
    "c(s,s)" "a(s,g)" "c(s,g)" "a(s,b)" "c(s,b)"
    "a(g,d)" "c(g,d)" "a(g,s)" "c(g,s)" "a(g,g)"
    "c(g,g)" "a(g,b)" "c(g,b)" "a(b,d)" "c(b,d)"
    "a(b,s)" "c(b,s)" "a(b,g)" "c(b,g)" "a(b,b)"
    "c(b,b)" ]
  functions = [
    Frequency
    Voltage Voltage Voltage Voltage Admittance
    Capacitance Admittance Capacitance Admittance Capacitance
    Admittance Capacitance Admittance Capacitance Admittance
    Capacitance Admittance Capacitance Admittance Capacitance
    Admittance Capacitance Admittance Capacitance Admittance
    Capacitance Admittance Capacitance Admittance Capacitance
    Admittance Capacitance Admittance Capacitance Admittance
    Capacitance ]
}

Data {
      1.00000000000000E+06
      8.72890191653601E-47  -1.39107868210733E-46   6.50000000000000E-01   5.66016096259047E-49   0.00000000000000E+00
      1.44528096689181E-17  -4.92258346760696E-17  -5.94832686265047E-20   1.40931505273061E-16  -1.30420419606032E-17
      1.04528167621126E-16  -1.15130494348314E-18  -4.96094567021116E-17  -5.94839957393104E-20   0.00000000000000E+00
      1.42930153529940E-17   1.11473753533571E-16  -1.30416904042326E-17  -3.85026881320194E-16  -1.15130755970732E-18
      1.26639858787802E-16  -1.30415954790260E-17   1.26644165912468E-16  -1.30411156697407E-17   0.00000000000000E+00
      3.59833899435519E-17  -1.63768105202211E-15  -9.90067884304490E-18  -1.52849884787322E-16  -1.15193894951136E-18
     -1.52861413702099E-16  -1.15192635507623E-18  -1.63743861416578E-15  -9.89944625337220E-18   0.00000000000000E+00
      1.22034533707391E-17
      1.00000000000000E+06
      1.20018675592836E-33  -1.79756170653716E-33   5.57142857142857E-01  -1.70359712896793E-34   0.00000000000000E+00
      1.44417029113731E-17  -7.54603039726976E-16  -1.03396851771464E-19   1.43453703936052E-17  -1.38212255816876E-17
     -1.21279641428096E-17  -5.13061269022931E-19  -7.55143338570063E-16  -1.03397128549431E-19   0.00000000000000E+00
      1.44111114090090E-17   1.48430751599162E-17  -1.38207659193067E-17  -4.26815365395246E-18  -5.13031314909660E-19
      1.34969376289739E-17  -1.38211784104048E-17   1.34975711258812E-17  -1.38206885802943E-17   0.00000000000000E+00
      3.02049339738682E-17  -1.72957816335946E-16  -2.56306698634920E-18  -1.90750850261417E-17  -5.13112215243943E-19
     -1.90443570961478E-17  -5.13080500185076E-19  -1.73276376285634E-16  -2.56296531687938E-18   0.00000000000000E+00
      3.58916248540365E-18
      1.00000000000000E+06
     -2.21838732921628E-35   2.64921967314500E-36   4.64285714285714E-01   7.01447116689686E-37   5.19259403593204E-15
      1.48145162095601E-17  -1.40854215596712E-14  -1.19109612233105E-19   3.61778362432084E-19  -1.41827377457118E-17
     -1.14996093423041E-17  -3.88614386718626E-19  -1.40839793909141E-14  -1.19110918939964E-19   9.94010858306991E-15
      1.46849968003641E-17   1.91811114021682E-18  -1.41823305517366E-17   4.91353536172339E-19  -3.88587081687345E-19
      1.03191543372453E-18  -1.41830723486717E-17   1.03191548230392E-18  -1.41825523175150E-17   0.00000000000000E+00
      2.97252384382061E-17  -1.62567926021972E-17  -1.35961377342576E-18  -4.44064191266684E-18  -3.88391537861684E-19
     -4.36578685464238E-18  -3.88358858657413E-19  -1.61877672513266E-17  -1.36006281391106E-18   0.00000000000000E+00
      2.13830565293671E-18
      1.00000000000000E+06
     -2.14415102063717E-34  -3.79708660081306E-35   3.71428571428571E-01  -4.74523201236854E-37   2.66454253958113E-13
      1.47567577229550E-17  -2.67812779399970E-13  -1.29898788038115E-19  -3.12338001597756E-19  -1.44854938224923E-17
     -2.94735156803595E-17  -3.54514007259802E-19  -2.67811934639442E-13  -1.29894306297483E-19   2.64822295832534E-13
      1.51247079522716E-17   2.26655701841028E-19  -1.44845735437047E-17  -5.03072348188417E-17  -3.54467330393867E-19
      3.72788477961471E-20  -1.44855597245880E-17   3.72840168034997E-20  -1.44850037606460E-17   0.00000000000000E+00
      3.01217689975696E-17  -7.27117377624114E-18  -1.15120551360568E-18  -2.94259198053247E-18  -3.54235740358221E-19
     -2.95155424769613E-18  -3.54203985170188E-19  -6.84322120578324E-18  -1.15174806898170E-18   0.00000000000000E+00
      1.85978931573080E-18
      1.00000000000000E+06
      1.92725773297636E-35   1.99446837046758E-35   2.78571428571429E-01  -1.15401653744105E-37   5.00432541217211E-12
      1.52103122413444E-17  -5.00463988693919E-12  -1.40698369950711E-19  -2.94449688546462E-19  -1.47984572030809E-17
     -3.89788334143076E-18  -3.34281893456659E-19  -5.00463990340527E-12  -1.40698896007601E-19   5.00417705234251E-12
      1.51713432827636E-17  -8.41304371230787E-19  -1.47979088213026E-17  -4.13662499047823E-18  -3.34252398507378E-19
     -2.89167068853072E-19  -1.47986869462342E-17  -2.89136187275324E-19  -1.47980914286713E-17   0.00000000000000E+00
      3.06468739268835E-17  -5.63088812256974E-18  -1.05009555291864E-18  -2.79388946923944E-18  -3.33985747108584E-19
     -2.78351475420800E-18  -3.33954710988729E-19  -5.85882227357961E-18  -1.05068240461003E-18   0.00000000000000E+00
      1.71869989316580E-18
      1.00000000000000E+06
     -5.56706773531651E-32   1.13414303109265E-31   1.85714285714286E-01   9.09741212414563E-36   9.12794236790126E-11
      1.56254177697627E-17  -9.12795714733340E-11  -1.52593002204528E-19  -4.23822982119320E-19  -1.51389553077518E-17
      1.62887590516223E-18  -3.19306891338880E-19  -9.12795723527505E-11  -1.52593525636719E-19   9.12794236790126E-11
      1.55912520353099E-17   2.59627121753181E-20  -1.51383520062234E-17  -5.66685497510442E-18  -3.19277311836652E-19
     -5.30415568719502E-19  -1.51392977553169E-17  -5.30357939405146E-19  -1.51386574504931E-17   0.00000000000000E+00
      3.12538637084515E-17  -4.70718308275040E-18  -9.75908503644148E-19  -2.48603483938579E-18  -3.18980233694007E-19
     -2.48642179531259E-18  -3.18949765537738E-19  -4.66860304092080E-18  -9.76562482031344E-19   0.00000000000000E+00
      1.61453700468140E-18
      1.00000000000000E+06
      6.64748261456127E-32   3.70692288125497E-33   9.28571428571429E-02  -1.96178691582533E-35   1.61384754445995E-09
      1.62490883092808E-17  -1.61384627172421E-09  -1.66639787564140E-19   1.52684857264634E-19  -1.55259329258039E-17
     -5.94353885564421E-18  -3.07632596188807E-19  -1.61384627189738E-09  -1.66643195672447E-19   1.61384887969841E-09
      1.60792515622297E-17  -5.72925353969240E-19  -1.55254279624088E-17  -5.34041826295875E-18  -3.07609272723156E-19
     -7.48917728890468E-19  -1.55266013044598E-17  -7.48829473845403E-19  -1.55259071767898E-17   0.00000000000000E+00
      3.19674078472880E-17  -4.02816586227729E-18  -9.14899365401242E-19  -2.34807716161735E-18  -3.07262552310532E-19
     -2.38584466853455E-18  -3.07232587050865E-19  -4.05300496549541E-18  -9.15658553745374E-19   0.00000000000000E+00
      1.53003725844861E-18
      1.00000000000000E+06
     -4.82886665898137E-32  -3.91364528974477E-32   5.42101086242752E-20   2.84302714837884E-36   2.73384381941562E-08
      1.65422431185215E-17  -2.73384409826447E-08  -1.84583771719286E-19  -2.09459912647272E-18  -1.59976947591887E-17
     -1.92118699162225E-18  -2.98593871469808E-19  -2.73384409838041E-08  -1.84586010963064E-19   2.73384420515118E-08
      1.64869259742903E-17  -3.02768747155218E-19  -1.59969978756380E-17  -2.52732499354533E-18  -2.98565605721818E-19
     -9.76439159414045E-19  -1.59982330015380E-17  -9.76312500883104E-19  -1.59974693742049E-17   0.00000000000000E+00
      3.28577422482341E-17  -3.49251823256178E-18  -8.62039872658117E-19  -2.20408654687796E-18  -2.98133559537397E-19
     -2.20763999156159E-18  -2.98104051377264E-19  -3.43405576118258E-18  -8.62963808324430E-19   0.00000000000000E+00
      1.45920021664042E-18
      1.00000000000000E+06
      1.01754869260836E-32  -4.95945363039502E-32  -9.28571428571429E-02  -5.34724947048832E-37   4.32196704680140E-07
      2.02112369753287E-17  -4.32196688142062E-07  -2.03129695629356E-19   5.18979482696715E-18  -1.66522811471836E-17
     -1.73392512048162E-16  -2.92038468972494E-19  -4.32196688338733E-07  -2.02262262287571E-19   4.32196735093905E-07
      2.27743148795452E-17  -2.33219499517540E-17  -1.66465032346218E-17  -3.06619539584790E-16  -2.91937924338980E-19
     -1.27881357356784E-18  -1.66574861152140E-17  -1.27863147273599E-18  -1.66566261411213E-17   1.48359829598058E-16
      3.41285916901160E-17  -3.05574700790563E-18  -8.14479434108916E-19  -2.12630270582019E-18  -2.91545845023398E-19
     -2.14747326533265E-18  -2.91516728095210E-19  -3.03864518534425E-18  -8.15674467950526E-19   0.00000000000000E+00
      1.39876135734279E-18
      1.00000000000000E+06
     -2.81801828146556E-36   5.91140230951869E-37  -1.85714285714286E-01  -2.01454539514966E-42   5.83470135525654E-06
      1.71850638332583E-17  -5.83470135562745E-06  -1.21581204795954E-19  -4.43788721760423E-18  -1.79095003319414E-17
     -1.17411024494026E-17  -2.89166616311714E-19  -5.83470135562753E-06  -1.25985614595138E-19   5.83470135050902E-06
      1.61024991779714E-17   4.56119089146078E-18  -1.79111301203242E-17  -3.20043914661534E-19  -2.89170343674009E-19
     -2.01597138053818E-18  -1.79079409106574E-17  -2.01569057032485E-18  -1.79069365527731E-17   1.48359829598058E-16
      3.65835446457712E-17  -2.68276830099232E-18  -7.68667181096953E-19  -2.10546052034671E-18  -2.88272382424861E-19
     -1.93009548546276E-18  -2.88243594471262E-19  -2.60596618518860E-18  -7.70357274581495E-19   1.48359829598058E-16
      1.34666386699605E-18
      1.00000000000000E+06
     -3.29027625036387E-34   1.55282132809651E-33  -2.78571428571429E-01  -9.75891894094586E-40   4.82211022819384E-05
      2.03612889971859E-17  -4.82211022843763E-05   9.81181778281478E-19  -1.80727312875318E-18  -2.08913234690432E-17
      1.24261826148963E-18  -2.92862968784823E-19  -4.82211022843824E-05   9.73777712534149E-19   4.82211022826802E-05
      2.01484836653239E-17   1.45220155893172E-18  -2.08908118826216E-17  -1.15778548525298E-18  -2.92843058174456E-19
     -4.72853333329608E-18  -2.08931938403134E-17  -4.72805667140309E-18  -2.08919843821676E-17   0.00000000000000E+00
      4.25016185854078E-17  -2.32107871706280E-18  -7.16440359118331E-19  -1.46779256598472E-18  -2.91490196003794E-19
     -1.41683209734564E-18  -2.91461051965552E-19  -2.19281171053875E-18  -7.19202981649010E-19   0.00000000000000E+00
      1.30059249610727E-18
      1.00000000000000E+06
     -2.02022449546692E-35   1.09248077379680E-36  -3.71428571428571E-01   4.96348036803499E-43   1.64177716628443E-04
      2.09172180650088E-17  -1.64177716628352E-04   3.52750834176645E-18  -1.43859525438693E-17  -2.47315302520385E-17
      3.49359085810060E-18  -3.07262388292538E-19  -1.64177716628472E-04   3.53122377823762E-18   1.64177716627701E-04
      2.09472845420385E-17  -8.07812613895516E-18  -2.47301402840544E-17  -1.42766445463891E-17  -3.07226996936724E-19
     -8.31372620658010E-18  -2.47313987535419E-17  -8.31306122040311E-18  -2.47300350049480E-17   0.00000000000000E+00
      5.01114911957777E-17  -1.93199956765203E-18  -6.50057438439728E-19  -6.96605580243775E-18  -3.04642412534930E-19
     -5.65182264409070E-18  -3.04610824668447E-19  -6.17263616372123E-18  -6.55246985755139E-19   0.00000000000000E+00
      1.26251851358655E-18
      1.00000000000000E+06
      2.03448973891043E-34  -9.94703300127094E-35  -4.64285714285714E-01  -1.00002492444085E-41   3.06409780307030E-04
      2.15567120573017E-17  -3.06409780308585E-04   5.97223871196780E-18   1.87504742072218E-18  -2.73468027813731E-17
     -4.61083507844428E-18  -3.29574527607370E-19  -3.06409780308704E-04   5.84614788573921E-18   3.06409780306734E-04
      2.10249349551718E-17  -1.70196885995158E-17  -2.73489259253765E-17  -6.90702119019365E-18  -3.29563352671341E-19
     -1.00193918862837E-17  -2.73507860758813E-17  -1.00186836331607E-17  -2.73493969164843E-17   0.00000000000000E+00
      5.52757613757058E-17  -1.55093359632769E-18  -5.75578364230130E-19  -2.50801390024854E-17  -3.24862133186511E-19
     -2.62327285182290E-17  -3.24826510272583E-19  -7.75386101093683E-19  -5.84989400401969E-19   0.00000000000000E+00
      1.23500689699519E-18
      1.00000000000000E+06
     -3.23247811308446E-35  -7.81203591509721E-36  -5.57142857142857E-01   4.66301054307979E-41   4.40952513834468E-04
      2.39479891533078E-17  -4.40952513834546E-04   8.61752562198370E-18  -2.78197535538228E-17  -2.90454464883985E-17
     -7.02106601910870E-18  -3.55168075583741E-19  -4.40952513834789E-04   9.15271591690957E-18   4.40952513827495E-04
      2.55040514315687E-17  -3.26682010716090E-17  -2.90325300829557E-17  -1.14594858015616E-17  -3.55075663848276E-19
     -1.07684493820212E-17  -2.90677195480486E-17  -1.07677772342545E-17  -2.90663809878824E-17   0.00000000000000E+00
      5.86362096716429E-17  -1.21328602179045E-18  -5.02109146642688E-19  -2.58216064163133E-17  -3.48396150888388E-19
     -2.59894091983584E-17  -3.48356361930961E-19  -2.87498235788731E-18  -5.15869657175027E-19   0.00000000000000E+00
      1.21290548296227E-18
      1.00000000000000E+06
     -1.28233791729901E-34   5.48852551388791E-34  -6.50000000000000E-01  -2.87720065664000E-38   5.61693722655198E-04
      3.71062519168161E-17  -5.61693722683567E-04   1.62416052194434E-17   7.15919828369770E-17  -3.01617043338988E-17
     -1.95570296937644E-17  -3.77554825279414E-19  -5.61693722679421E-04   1.20451667357603E-17   5.61693722693178E-04
      2.80209819226009E-17   2.59386905431418E-16  -3.02224845803430E-17   1.30117989978715E-17  -3.77794226759902E-19
     -1.11233116492185E-17  -3.02770708812063E-17  -1.11227220068735E-17  -3.02758151385773E-17   0.00000000000000E+00
      6.09932420590087E-17  -9.53151062138549E-19  -4.40356375777995E-19  -1.00829722287044E-16  -3.70199768972361E-19
     -1.01477140935787E-16  -3.70156194633674E-19  -2.14907387503293E-18  -4.55958066750293E-19   0.00000000000000E+00
      1.19624948524083E-18
}
