DF-ISE text

Info {
  version   = 1.0
  type      = xyplot
  datasets  = [
    "ndrain OuterVoltage" "ndrain TotalCurrent" "nsource OuterVoltage" "nsource TotalCurrent" "substrate OuterVoltage" "ngate OuterVoltage" ]
  functions  = [
    OuterVoltage TotalCurrent OuterVoltage TotalCurrent OuterVoltage OuterVoltage ]
}

Data {
0.05 7.69359375484e-14 0.0 -7.69316974458e-14 0.0 -0.3
0.05 1.94102078884e-12 0.0 -1.94092027531e-12 0.0 -0.2
0.05 4.7899225205e-11 0.0 -4.7896822035e-11 0.0 -0.1
0.05 1.14636836633e-9 0.0 -1.14631044511e-9 0.0 0
0.05 2.59920239873e-8 0.0 -2.59906194632e-8 0.0 0.1
0.05 5.00910966712e-7 0.0 -5.00877794364e-7 0.0 0.2
0.05 4.89629361491e-6 0.0 -4.8957933638e-6 0.0 0.3
0.05 1.69549633179e-5 0.0 -1.69527852479e-5 0.0 0.4
0.05 3.25704967391e-5 0.0 -3.25678540703e-5 0.0 0.5
0.05 4.62248416033e-5 0.0 -4.62237645436e-5 0.0 0.6
0.05 5.1715530819e-5 0.0 -5.17152197376e-5 0.0 0.65
}
