DF-ISE text

Info {
  version   = 1.0
  type      = xyplot
  datasets  = [
    "ndrain OuterVoltage" "ndrain TotalCurrent" "nsource OuterVoltage" "nsource TotalCurrent" "substrate OuterVoltage" "ngate OuterVoltage" ]
  functions  = [
    OuterVoltage TotalCurrent OuterVoltage TotalCurrent OuterVoltage OuterVoltage ]
}

Data {
0.65 3.16784409741e-13 0.0 -3.16762391084e-13 0.0 -0.3
0.65 8.12864154305e-12 0.0 -8.12815189864e-12 0.0 -0.2
0.65 2.01701635723e-10 0.0 -2.01691205119e-10 0.0 -0.1
0.65 4.76535744335e-9 0.0 -4.76514374566e-9 0.0 0
0.65 1.02051424484e-7 0.0 -1.02047041657e-7 0.0 0.1
0.65 1.5459714393e-6 0.0 -1.54587972333e-6 0.0 0.2
0.65 9.23160065255e-6 0.0 -9.2305365283e-6 0.0 0.3
0.65 2.40199845505e-5 0.0 -2.40156126334e-5 0.0 0.4
0.65 4.2695366913e-5 0.0 -4.26843478951e-5 0.0 0.5
0.65 6.33599725046e-5 0.0 -6.33391521233e-5 0.0 0.6
0.65 7.41458702042e-5 0.0 -7.4120305562e-5 0.0 0.65
}
