DF-ISE text

Info {
  version   = 1.0
  type      = xyplot
  datasets  = [
    "frequency"
    "v(d)" "v(s)" "v(g)" "v(b)" "a(d,d)"
    "c(d,d)" "a(d,s)" "c(d,s)" "a(d,g)" "c(d,g)"
    "a(d,b)" "c(d,b)" "a(s,d)" "c(s,d)" "a(s,s)"
    "c(s,s)" "a(s,g)" "c(s,g)" "a(s,b)" "c(s,b)"
    "a(g,d)" "c(g,d)" "a(g,s)" "c(g,s)" "a(g,g)"
    "c(g,g)" "a(g,b)" "c(g,b)" "a(b,d)" "c(b,d)"
    "a(b,s)" "c(b,s)" "a(b,g)" "c(b,g)" "a(b,b)"
    "c(b,b)" ]
  functions = [
    Frequency
    Voltage Voltage Voltage Voltage Admittance
    Capacitance Admittance Capacitance Admittance Capacitance
    Admittance Capacitance Admittance Capacitance Admittance
    Capacitance Admittance Capacitance Admittance Capacitance
    Admittance Capacitance Admittance Capacitance Admittance
    Capacitance Admittance Capacitance Admittance Capacitance
    Admittance Capacitance Admittance Capacitance Admittance
    Capacitance ]
}

Data {
      1.00000000000000E+06
     -1.52478515675352E-46   4.91859850236057E-47   6.50000000000000E-01   1.03309401579630E-48   0.00000000000000E+00
      1.12230645485473E-17   9.20059831962637E-18  -2.57351916612378E-21   2.78526880657374E-16  -1.02029445211704E-17
      4.07349849165129E-16  -1.06289186819218E-18   1.13283285306126E-17  -2.57342408017082E-21   0.00000000000000E+00
      1.13494532900008E-17   3.48099859657948E-16  -1.02025489802277E-17   2.32757764199361E-15  -1.06283904630103E-18
      2.54953262958314E-16  -1.02020805749846E-17   2.54952014867098E-16  -1.02019225293364E-17   0.00000000000000E+00
      4.15684384581287E-17  -6.14173412118327E-15  -2.11644353979875E-17  -2.80427209817087E-16  -1.06366241968404E-18
     -2.80480280755800E-16  -1.06364401421028E-18  -6.14676196354868E-15  -2.11628746038452E-17   1.18687863678447E-15
      2.32900201415451E-17
      1.00000000000000E+06
     -1.12031593860508E-38   4.04372248778404E-39   5.57142857142857E-01  -2.00040476160295E-39   0.00000000000000E+00
      1.15132424079256E-17  -4.83550017079179E-18  -9.47799141949149E-21   1.75143072754972E-16  -1.08577860555480E-17
      1.11528509069076E-15  -5.80943016411422E-19  -6.83431390015097E-18  -9.47860827665645E-21   0.00000000000000E+00
      1.12579207840891E-17   1.29060834530055E-16  -1.08581339197091E-17   4.68724161407283E-16  -5.80962936727742E-19
      8.60875777501548E-17  -1.08571577164065E-17   8.60868504477226E-17  -1.08569976754081E-17   0.00000000000000E+00
      3.16120083692461E-17  -2.11433777668594E-15  -9.89785299470884E-18  -9.60884842577691E-17  -5.81697872323149E-19
     -9.60705854603193E-17  -5.81677528823678E-19  -2.11351076003141E-15  -9.89635587412520E-18   0.00000000000000E+00
      1.10598601227547E-17
      1.00000000000000E+06
      3.96674926961347E-36  -3.46133773084245E-36   4.64285714285714E-01  -8.65321057438544E-36   0.00000000000000E+00
      1.16894633882198E-17  -1.82725009584703E-16  -1.90216221206717E-20   6.35983905838758E-18  -1.14093236572575E-17
     -2.05773981406731E-17  -2.62329083934634E-19  -1.82938534014734E-16  -1.90216543260605E-20   0.00000000000000E+00
      1.16811400315126E-17   7.83513398330585E-18  -1.14091731407571E-17   2.16268572915622E-17  -2.62309969910772E-19
      4.95529604629120E-18  -1.14092842760322E-17   4.95513323862953E-18  -1.14091181731084E-17   0.00000000000000E+00
      2.47880045084399E-17  -1.15966685255168E-16  -1.96960206277220E-18  -7.96777550420076E-18  -2.62366496383839E-19
     -7.93837804684386E-18  -2.62346913398994E-19  -1.15880716503685E-16  -1.96953111208521E-18   0.00000000000000E+00
      2.49395625900567E-18
      1.00000000000000E+06
     -2.95578691462325E-33   1.36048450238242E-33   3.71428571428571E-01  -5.07353820355346E-36   0.00000000000000E+00
      1.20188630737478E-17  -4.72910032525583E-15  -2.34538597773709E-20   6.70488269466336E-19  -1.17638004524811E-17
      2.11095542508538E-19  -2.08742087980656E-19  -4.72889964173091E-15  -2.34537622767525E-20   0.00000000000000E+00
      1.20411026229554E-17   2.29543142427442E-18  -1.17635879322272E-17   1.12148677678420E-17  -2.08722384192186E-19
     -1.89244332580393E-19  -1.17640223634279E-17  -1.89311847580418E-19  -1.17638463912342E-17   0.00000000000000E+00
      2.45689122535217E-17  -1.09108893832351E-17  -1.04104349995548E-18  -2.29816397269750E-18  -2.08564062981084E-19
     -2.28657027106032E-18  -2.08545820116483E-19  -1.09285618822536E-17  -1.04140145985632E-18   0.00000000000000E+00
      1.45857866906901E-18
      1.00000000000000E+06
     -4.41458986905772E-35   1.99277032455027E-34   2.78571428571429E-01  -1.56788823360275E-37   1.22545219247996E-13
      1.23123031321569E-17  -1.26335410492651E-13  -2.72092080018476E-20  -9.66756131041745E-19  -1.21269984141251E-17
     -5.69445697706423E-18  -1.91454215400875E-19  -1.26334646318799E-13  -2.72089129361921E-20   1.22693579077594E-13
      1.23658766645445E-17  -1.04710762933304E-18  -1.21267167357222E-17  -3.78055148208260E-18  -1.91434123289101E-19
     -7.17011100288919E-19  -1.21271469213128E-17  -7.17049915308024E-19  -1.21269593111148E-17   0.00000000000000E+00
      2.51465971412388E-17  -5.81801541379264E-18  -8.92490908550502E-19  -1.75831562921353E-18  -1.91245826566759E-19
     -1.75768023591572E-18  -1.91228392644100E-19  -5.67002304719308E-18  -8.92904481700889E-19   0.00000000000000E+00
      1.27536242555550E-18
      1.00000000000000E+06
     -8.49062340785132E-33   6.39352333544861E-33   1.85714285714286E-01   9.50215096917726E-35   3.33141997362440E-12
      1.26807683223945E-17  -3.33310150407808E-12  -3.11016686583953E-20  -1.11756065762256E-18  -1.25153151410852E-17
     -8.92596532505563E-18  -1.80376356376500E-19  -3.33310088125423E-12  -3.11013925746414E-20   3.33127161379480E-12
      1.27223091383905E-17  -1.11680710811782E-18  -1.25150407043816E-17  -7.36840101495291E-18  -1.80357555322315E-19
     -1.00913247286734E-18  -1.25154672047286E-17  -1.00914794765801E-18  -1.25152670502696E-17   0.00000000000000E+00
      2.58424931976357E-17  -4.51111976394044E-18  -8.11758943871130E-19  -1.57748497128716E-18  -1.80140601021424E-19
     -1.57568130515520E-18  -1.80123790948264E-19  -4.50164664109168E-18  -8.12226452155619E-19   0.00000000000000E+00
      1.17244768980138E-18
      1.00000000000000E+06
     -2.56439378133543E-36   1.01724297009639E-35   9.28571428571429E-02  -4.09219584196408E-41   8.61365301859959E-11
      1.32208946456192E-17  -8.61369372096132E-11  -3.53417857798901E-20  -1.36205404055376E-18  -1.29327497210552E-17
     -5.39754842453794E-18  -1.72305006375175E-19  -8.61369373038022E-11  -3.53425766383118E-20   8.61357883868479E-11
      1.31087038467026E-17  -1.41035326344010E-18  -1.29327420439681E-17  -1.68392858602170E-18  -1.72292557401850E-19
     -1.26289763397085E-18  -1.29331763236224E-17  -1.26288990675566E-18  -1.29329621094631E-17   1.48359829598058E-16
      2.66164306280034E-17  -3.68545050918643E-18  -7.50292195063390E-19  -1.45144094209718E-18  -1.72028502920642E-19
     -1.45114540664505E-18  -1.72012188749324E-19  -3.68290443495556E-18  -7.50850328626704E-19   0.00000000000000E+00
      1.09494828356166E-18
      1.00000000000000E+06
      1.68863632261346E-36   3.69967435707298E-37   5.42101086242752E-20   1.12400284142663E-42   2.16427037533971E-09
      1.36622206131548E-17  -2.16427151503106E-09  -4.02489850603773E-20  -2.01363419678301E-18  -1.34055517011407E-17
     -3.31374130868057E-18  -1.66412261427421E-19  -2.16427151507593E-09  -4.02490177217304E-20   2.16427260073716E-09
      1.36511622563097E-17  -1.60397504675013E-18  -1.34053309238572E-17  -1.94914357436760E-18  -1.66395717800008E-19
     -1.51725029183354E-18  -1.34059981510300E-17  -1.51721656653573E-18  -1.34057654348656E-17   1.48359829598058E-16
      2.75113222743102E-17  -3.07768501889742E-18  -6.99558688269097E-19  -1.36031870092317E-18  -1.66057988640499E-19
     -1.36013706237635E-18  -1.66042042706972E-19  -3.08275558173853E-18  -7.00269722457399E-19   0.00000000000000E+00
      1.03229653287208E-18
      1.00000000000000E+06
      4.75609860029300E-37   2.01987765187333E-36  -9.28571428571429E-02   1.70085965869034E-41   5.21381417973518E-08
      1.34904283062887E-17  -5.21381479272500E-08  -4.53524596165901E-20   3.66778168868010E-18  -1.40042756078719E-17
      1.17514785563880E-17  -1.62385035240065E-19  -5.21381479224913E-08  -4.54663883434801E-20   5.21381570784143E-08
      1.22696334881181E-17   3.37230562011439E-17  -1.40066961385615E-17   1.74208549026008E-17  -1.62418439430975E-19
     -1.82438542563085E-18  -1.40032854693172E-17  -1.82431837881608E-18  -1.40030251202374E-17   0.00000000000000E+00
      2.86617042856806E-17  -2.60134587779033E-18  -6.55393696291561E-19  -1.30343465533922E-18  -1.61881035830035E-19
     -1.30982725674610E-18  -1.61865345148715E-19  -2.61114635347972E-18  -6.56371512324811E-19   0.00000000000000E+00
      9.80025314009801E-19
      1.00000000000000E+06
     -1.86659030572039E-36   3.78592358488109E-36  -1.85714285714286E-01   4.68770638778562E-41   1.15435765355908E-06
      1.49545661305843E-17  -1.15435765300916E-06  -1.53262653210336E-20   2.92043397219009E-19  -1.49817367990892E-17
     -7.49037220843847E-19  -1.60547961835584E-19  -1.15435765303660E-06  -1.55832564071750E-20   1.15435765281728E-06
      1.48031197423293E-17  -1.60737133079352E-18  -1.49818859590218E-17  -1.17459435613584E-18  -1.60539777881688E-19
     -2.40873277440079E-18  -1.49819252165217E-17  -2.40866510748296E-18  -1.49816215193929E-17   0.00000000000000E+00
      3.05781887332664E-17  -2.21011671471918E-18  -6.14642022278714E-19  -1.26021849768426E-18  -1.59792198737327E-19
     -1.27225328011984E-18  -1.59776684358630E-19  -2.20025210320056E-18  -6.16145707609195E-19   0.00000000000000E+00
      9.35698746974274E-19
      1.00000000000000E+06
     -2.34277933159622E-34   7.31549679280091E-35  -2.78571428571429E-01   1.74795911640715E-40   1.87146991903908E-05
      1.72226733998947E-17  -1.87146991895801E-05   7.30308516655938E-19  -2.65285950088596E-18  -1.77300459745860E-17
     -1.51198176988544E-18  -1.63702876046508E-19  -1.87146991895807E-05   7.28486113224023E-19   1.87146991906875E-05
      1.71544841194336E-17  -3.15634421972355E-18  -1.77300316296679E-17  -1.04909867550497E-18  -1.63688604561255E-19
     -5.25438549140336E-18  -1.77317803654873E-17  -5.25415303259772E-18  -1.77314135097355E-17   0.00000000000000E+00
      3.60343936861491E-17  -1.86104353520664E-18  -5.71199810741793E-19  -1.28230743236346E-18  -1.62267643114595E-19
     -1.20248847971218E-18  -1.62252178140648E-19  -1.74092443170436E-18  -5.74072318857906E-19   0.00000000000000E+00
      8.98532521891741E-19
      1.00000000000000E+06
     -2.22128226899786E-35   6.52781938236574E-35  -3.71428571428571E-01   2.41017420554493E-40   1.07991297555594E-04
      1.94022616022050E-17  -1.07991297556580E-04   4.15672657723792E-18  -1.24901780277081E-17  -2.34707160398381E-17
     -1.37988280691958E-18  -1.79869798427569E-19  -1.07991297556598E-04   4.15684984493755E-18   1.07991297556632E-04
      1.94016951466659E-17  -1.35878978794248E-17  -2.34703703963556E-17  -1.46106705950382E-18  -1.79854202055556E-19
     -1.30606598966258E-17  -2.34734363976914E-17  -1.30603219612955E-17  -2.34730650605383E-17   0.00000000000000E+00
      4.74558941816884E-17  -1.46674059693776E-18  -5.09392721718846E-19  -1.47348989082215E-18  -1.76430013832008E-19
     -1.47600229440165E-18  -1.76413559730744E-19  -1.53760566913554E-18  -5.16268731691235E-19   0.00000000000000E+00
      8.69159673818120E-19
      1.00000000000000E+06
      1.88629574833686E-33  -5.30852286248314E-33  -4.64285714285714E-01  -7.44037906705262E-38   2.33154193371320E-04
      1.90161295476597E-17  -2.33154193375450E-04   7.12274404250076E-18  -2.16629916487235E-17  -2.73386334152402E-17
     -4.18187101814185E-18  -2.07722619728110E-19  -2.33154193375329E-04   7.07352146932438E-18   2.33154193369688E-04
      1.88609166009955E-17   5.08831850560278E-17  -2.73402267401664E-17  -1.41070567112419E-18  -2.07717812989058E-19
     -1.69699256165460E-17  -2.73333867251613E-17  -1.69696829134564E-17  -2.73331311041652E-17   0.00000000000000E+00
      5.50987089344763E-17  -1.05363875851457E-18  -4.32191109668358E-19  -2.18808611100311E-18  -2.01412823631293E-19
     -2.31334573063484E-18  -2.01394518927620E-19  -9.67632006786127E-19  -4.44782828855241E-19   0.00000000000000E+00
      8.47584790719507E-19
      1.00000000000000E+06
      2.92619563542680E-35  -1.86593354127781E-36  -5.57142857142857E-01  -9.99846581841730E-40   3.43740880375431E-04
      3.00128368068141E-17  -3.43740880383079E-04   1.47863504026376E-17  -2.79737959205681E-17  -2.91951219699456E-17
     -2.31960549257965E-18  -2.32523144254097E-19  -3.43740880383367E-04   1.38509934901783E-17   3.43740880351545E-04
      2.83448334827831E-17  -1.21629941411604E-16  -2.92149359159044E-17  -1.46382698513560E-18  -2.32445822891052E-19
     -1.80193069650795E-17  -2.93221430852255E-17  -1.80192084167738E-17  -2.93220268454985E-17   1.48359829598058E-16
      5.90108898414782E-17  -7.43586420286978E-19  -3.66719964261235E-19   1.59732946785897E-17  -2.25464775304722E-19
      1.61522248123608E-17  -2.25444748529783E-19   6.50341922851675E-19  -3.80847264665178E-19   0.00000000000000E+00
      8.31607678841714E-19
      1.00000000000000E+06
     -7.39353994896737E-36   5.06752729078300E-36  -6.50000000000000E-01  -3.68100999877847E-42   4.36010246743204E-04
      2.36887464125462E-17  -4.36010246714935E-04   1.33556302367847E-17  -5.43736876464612E-16  -3.04449104669865E-17
     -1.11269001033490E-18  -2.48503064798055E-19  -4.36010246709251E-04   9.96775406899087E-18   4.36010246768870E-04
      1.85201885131097E-17  -1.85896496089489E-16  -3.05042819347732E-17  -2.64861087899625E-18  -2.48457858800792E-19
     -1.82120599055179E-17  -3.04945736812089E-17  -1.82120790407700E-17  -3.04945693342899E-17   0.00000000000000E+00
      6.13111055313631E-17  -5.50027328118944E-19  -3.21962505612923E-19   5.59648657573535E-17  -2.42517331224629E-19
      5.70162784496067E-17  -2.42495934675360E-19   3.91738045289578E-19  -3.33888261882448E-19   0.00000000000000E+00
      8.18935811825138E-19
}
