DF-ISE text

Info {
  version   = 1.0
  type      = xyplot
  datasets  = [
    "frequency"
    "v(d)" "v(s)" "v(g)" "v(b)" "a(d,d)"
    "c(d,d)" "a(d,s)" "c(d,s)" "a(d,g)" "c(d,g)"
    "a(d,b)" "c(d,b)" "a(s,d)" "c(s,d)" "a(s,s)"
    "c(s,s)" "a(s,g)" "c(s,g)" "a(s,b)" "c(s,b)"
    "a(g,d)" "c(g,d)" "a(g,s)" "c(g,s)" "a(g,g)"
    "c(g,g)" "a(g,b)" "c(g,b)" "a(b,d)" "c(b,d)"
    "a(b,s)" "c(b,s)" "a(b,g)" "c(b,g)" "a(b,b)"
    "c(b,b)" ]
  functions = [
    Frequency
    Voltage Voltage Voltage Voltage Admittance
    Capacitance Admittance Capacitance Admittance Capacitance
    Admittance Capacitance Admittance Capacitance Admittance
    Capacitance Admittance Capacitance Admittance Capacitance
    Admittance Capacitance Admittance Capacitance Admittance
    Capacitance Admittance Capacitance Admittance Capacitance
    Admittance Capacitance Admittance Capacitance Admittance
    Capacitance ]
}

Data {
      1.00000000000000E+06
      6.31999942755477E-46  -2.00227254103518E-45   6.50000000000000E-01  -5.59646418416663E-49   3.93153548434855E-14
      1.74137617741539E-17  -4.80681260362555E-14  -4.56866544346524E-19   4.90831648157713E-17  -1.60672384686134E-17
      1.68001381380810E-16  -7.61760749833619E-19  -4.80673338355595E-14  -4.56864132430949E-19   3.88702753546913E-14
      1.75028634896754E-17   6.08218800087407E-17  -1.60665583033185E-17   2.04689604049734E-16  -7.61710536890431E-19
      3.79313850177626E-17  -1.60674562479900E-17   3.79401310130736E-17  -1.60668441522440E-17   0.00000000000000E+00
      3.41893711668194E-17  -4.00299983746176E-16  -2.05507076158996E-18  -5.08373368748982E-17  -7.61645059940105E-19
     -5.06545695968216E-17  -7.61600753549363E-19  -3.98802914011905E-16  -2.05532170521400E-18   0.00000000000000E+00
      3.57785395273871E-18
      1.00000000000000E+06
      4.03415046432091E-34  -3.16386440303341E-33   5.57142857142857E-01   3.68161798946794E-36   5.15847127512449E-13
      1.75335276876274E-17  -5.20910070408489E-13  -4.85998994635374E-19   1.43151833570603E-18  -1.63449763353048E-17
     -1.91132017034418E-17  -6.59883930781904E-19  -5.20910303082487E-13  -4.85998693602967E-19   5.16143847171645E-13
      1.75437698763027E-17  -1.10583106789746E-18  -1.63443257911338E-17  -3.96952327473009E-17  -6.59834052221509E-19
      2.79084619769859E-18  -1.63452060622735E-17   2.79120270842522E-18  -1.63445633120311E-17   1.48359829598058E-16
      3.41814204338550E-17  -2.69725857871908E-17  -1.49165106673732E-18  -7.82799142695849E-18  -6.59689643896252E-19
     -7.83987797667565E-18  -6.59640641914078E-19  -2.70609484660110E-17  -1.49204865949726E-18   0.00000000000000E+00
      2.80962317229279E-18
      1.00000000000000E+06
      3.27058439680701E-32  -7.00660050349503E-33   4.64285714285714E-01   1.78264148536196E-34   5.56764768515594E-12
      1.75281798574126E-17  -5.56447789811264E-12  -5.11015521349840E-19   4.76408900673328E-19  -1.65925157308786E-17
     -1.34793856996080E-17  -6.17834745083919E-19  -5.56447664225188E-12  -5.10999595869785E-19   5.56690588600795E-12
      1.80142203440544E-17   5.23153838776161E-19  -1.65914563606287E-17  -1.01410640022329E-17  -6.17759642156249E-19
      6.82415572741486E-19  -1.65925789229675E-17   6.82395545754870E-19  -1.65918960489297E-17   0.00000000000000E+00
      3.45219198887787E-17  -7.92195322627437E-18  -1.33744491459700E-18  -5.26459652263856E-18  -6.17610926794225E-19
     -5.33691708835657E-18  -6.17563063631304E-19  -8.96036324676497E-18  -1.33787108195949E-18   0.00000000000000E+00
      2.57306397076383E-18
      1.00000000000000E+06
      1.77456629228805E-35   1.02399996896711E-35   3.71428571428571E-01  -1.92004096271946E-37   5.82064570256950E-11
      1.80150139619253E-17  -5.82104293333901E-11  -5.37072478465639E-19   2.59984968551474E-19  -1.68492407410599E-17
     -3.09727202277236E-17  -5.89178884504184E-19  -5.82104292847476E-11  -5.37058554641101E-19   5.82097209419462E-11
      1.84094550698172E-17  -2.16359559063907E-19  -1.68481952438459E-17  -4.81756485410950E-17  -5.89109925546657E-19
      3.21271321098123E-19  -1.68494985663668E-17   3.21255599232508E-19  -1.68487707038647E-17   0.00000000000000E+00
      3.49421385900914E-17  -6.11606614198262E-18  -1.24386932255263E-18  -4.30302018381583E-18  -5.88955541647729E-19
     -4.31298637815194E-18  -5.88908718411930E-19  -6.10878507442610E-18  -1.24431795263178E-18   0.00000000000000E+00
      2.42307390336470E-18
      1.00000000000000E+06
      3.70522747101885E-32  -2.24641309609581E-32   2.78571428571429E-01  -4.18195516142880E-34   5.93801909815771E-10
      1.83263312709255E-17  -5.93801109170772E-10  -5.66148883086647E-19  -3.15790079849270E-19  -1.71274534577079E-17
      1.64017560114464E-17  -5.66797098374594E-19  -5.93801107914265E-10  -5.66135029126346E-19   5.93801316376453E-10
      1.86811610649030E-17  -2.13717917835667E-20  -1.71263739263761E-17  -4.44301818164109E-17  -5.66732615650305E-19
      8.82336367245021E-20  -1.71277541463508E-17   8.82353126241535E-20  -1.71269751904798E-17   0.00000000000000E+00
      3.54255547889926E-17  -5.28423132101327E-18  -1.17082545593484E-18  -3.99219440186436E-18  -5.66558811288814E-19
     -3.99804180352123E-18  -5.66512900589436E-19  -5.24095383046158E-18  -1.17130746426347E-18   0.00000000000000E+00
      2.30483423480149E-18
      1.00000000000000E+06
     -6.98664636504374E-33  -7.84910748468457E-33   1.85714285714286E-01  -1.52046676107953E-35   5.87201084277295E-09
      1.89464293139895E-17  -5.87200954278232E-09  -6.00527552837121E-19  -1.63193695965212E-19  -1.74396089967806E-17
      4.17525881231025E-17  -5.48585420175887E-19  -5.87200954177876E-09  -6.00540955707724E-19   5.87201247473107E-09
      1.87132697052734E-17  -1.81419048572254E-19  -1.74390066942539E-17  -1.18336888260930E-17  -5.48551304162267E-19
     -1.13453425517275E-19  -1.74402249238904E-17  -1.13429519407356E-19  -1.74393857710614E-17   0.00000000000000E+00
      3.59887178052354E-17  -4.66049855825006E-18  -1.10910711273982E-18  -3.83821795240514E-18  -5.48337775286451E-19
     -3.81985161496580E-18  -5.48292769488327E-19  -4.67010513852034E-18  -1.10963782546924E-18   1.48359829598058E-16
      2.20575066340183E-18
      1.00000000000000E+06
      7.94364846802011E-34  -5.89657397048745E-33   9.28571428571429E-02   1.82347263800686E-35   5.57337203049311E-08
      1.91463508264600E-17  -5.57337181887801E-08  -6.44227924279049E-19  -4.29141917907628E-19  -1.78093466305410E-17
      2.11398756119669E-17  -5.33652216845894E-19  -5.57337181923291E-08  -6.44230944606624E-19   5.57337185246132E-08
      1.91227960185856E-17  -6.42747536508197E-19  -1.78084657002011E-17  -5.43846976603579E-17  -5.33608701640872E-19
     -3.08578600110481E-19  -1.78098167459349E-17  -3.08527123931051E-19  -1.78089032702294E-17   0.00000000000000E+00
      3.66733714603557E-17  -4.15382859474885E-18  -1.05465144439282E-18  -3.36792006049189E-18  -5.33360542825681E-19
     -3.26594306255146E-18  -5.33316395481115E-19  -3.41771512006524E-18  -1.05525036528345E-18   0.00000000000000E+00
      2.12182440658099E-18
      1.00000000000000E+06
      1.84241331784638E-34  -7.33166192729590E-33   5.42101086242752E-20   3.33821983589256E-36   4.97611109493068E-07
      1.94760950307585E-17  -4.97611112087448E-07  -7.02566594928723E-19  -5.81146217538219E-20  -1.82881419196105E-17
     -8.75952410321550E-19  -5.21566846754280E-19  -4.97611112095119E-07  -7.02618450205237E-19   4.97611111570106E-07
      1.92687719219036E-17  -5.71054693767201E-19  -1.82873658946414E-17  -4.25234761216221E-17  -5.21533542641564E-19
     -5.30027498002347E-19  -1.82884483758188E-17  -5.29938718023268E-19  -1.82874384224333E-17   0.00000000000000E+00
      3.75806696352112E-17  -3.72527223051827E-18  -1.00478283550860E-18  -3.21664352568927E-18  -5.21215254654681E-19
     -2.89801961925816E-18  -5.21171978950257E-19  -3.08230061634656E-18  -1.00548017817500E-18   0.00000000000000E+00
      2.04903033105131E-18
      1.00000000000000E+06
     -1.98365986996469E-32  -2.99982720649906E-32  -9.28571428571429E-02   2.79109276962958E-36   3.97197694044431E-06
      2.27989558752417E-17  -3.97197692303142E-06  -7.50769487420591E-19   9.36888230676512E-18  -1.90154758919994E-17
      6.69835365896744E-17  -5.12433020180881E-19  -3.97197692294107E-06  -7.61560914857576E-19   3.97197695513193E-06
      1.61860778413647E-17   3.75430490823694E-18  -1.90231599393649E-17   2.05398422970931E-16  -5.12711867322180E-19
     -8.80532567591577E-19  -1.90193680081797E-17  -8.80384336181770E-19  -1.90182259613617E-17   0.00000000000000E+00
      3.89946603543862E-17  -3.34966185572941E-18  -9.57066393075429E-19  -3.27223517930483E-18  -5.12130524595148E-19
     -3.27563929506530E-18  -5.12088183220439E-19  -3.24788762583002E-18  -9.57914387775329E-19   0.00000000000000E+00
      1.98172374260491E-18
      1.00000000000000E+06
      4.92157301219289E-36  -5.03393161667172E-36  -1.85714285714286E-01  -1.69719747072241E-41   2.46814633553656E-05
      2.12021142542048E-17  -2.46814633556670E-05  -5.71966265817218E-19  -4.04700522905704E-18  -2.03569447799649E-17
     -1.49133673433903E-18  -5.08056883718197E-19  -2.46814633556653E-05  -5.65576047653294E-19   2.46814633553656E-05
      2.18584046613823E-17  -4.15220689885889E-18  -2.03546097194261E-17   6.77409998362664E-18  -5.07981481606384E-19
     -1.71388807053214E-18  -2.03571229388347E-17  -1.71363980656672E-18  -2.03557968775171E-17   1.48359829598058E-16
      4.16209237347682E-17  -3.00492844563831E-18  -9.08003918746351E-19  -3.23188202504995E-18  -5.07502798489666E-19
     -3.15176337622347E-18  -5.07460798470308E-19  -3.00337234157200E-18  -9.09087901874858E-19   0.00000000000000E+00
      1.92501271475021E-18
      1.00000000000000E+06
      9.34408111462641E-34  -1.39275521827011E-33  -2.78571428571429E-01   1.06215605462495E-39   9.50873262646445E-05
      2.24336383161830E-17  -9.50873262605458E-05   4.36848841325508E-19  -2.12154448648196E-17  -2.25008814897494E-17
     -1.33223956909976E-17  -5.10426435131019E-19  -9.50873262605204E-05   4.47106074626398E-19   9.50873262621224E-05
      2.26959271528825E-17  -7.81867567759754E-19  -2.24988613075588E-17   3.46282020480472E-17  -5.10368964696259E-19
     -3.31397185385119E-18  -2.25013706491363E-17  -3.31358043645251E-18  -2.24998349506270E-17   0.00000000000000E+00
      4.58542014274997E-17  -2.66839476822221E-18  -8.52995826224105E-19  -2.26296757244914E-18  -5.09672826672806E-19
     -3.49733181004431E-18  -5.09629621942735E-19  -2.78511620582986E-18  -8.54485947358185E-19   0.00000000000000E+00
      1.87553164052084E-18
      1.00000000000000E+06
      1.52441653376977E-35  -1.81056399486774E-34  -3.71428571428571E-01   4.26012236312138E-42   2.19350079292586E-04
      2.28048066346623E-17  -2.19350079292883E-04   2.14284349698703E-18  -9.53281702325290E-18  -2.47402309566863E-17
     -1.45527013279163E-16  -5.20092477874010E-19  -2.19350079293267E-04   2.11707546668084E-18   2.19350079288432E-04
      2.24972167981278E-17  -1.87105889727443E-17  -2.47392322532400E-17  -5.19878702396584E-17  -5.20063379331831E-19
     -4.83106625659965E-18  -2.47406323842252E-17  -4.83056661728383E-18  -2.47389492396624E-17   1.48359829598058E-16
      5.02709809679208E-17  -2.33705197366038E-18  -7.91399285757542E-19  -7.51772607682382E-18  -5.18959303297251E-19
     -2.55367623742941E-19  -5.18912566954280E-19  -2.82728497686280E-18  -7.93635820002874E-19   0.00000000000000E+00
      1.83136294572513E-18
      1.00000000000000E+06
      2.28289890488357E-35   3.23778830459603E-35  -4.64285714285714E-01   1.73983548265640E-42   3.65611740083533E-04
      2.71138304706865E-17  -3.65611740080232E-04   4.60312551041457E-18  -2.15910731128426E-17  -2.65496037219913E-17
      5.88782059936172E-17  -5.35195233651439E-19  -3.65611740078829E-04   3.67177061936356E-18   3.65611740079527E-04
      2.15147013076219E-17   6.94368422974844E-18  -2.65655945549545E-17   6.70583136475058E-17  -5.35446297354568E-19
     -5.79048908391536E-18  -2.65640306016838E-17  -5.78994661386793E-18  -2.65622784982615E-17   0.00000000000000E+00
      5.38523662575636E-17  -2.02045452533838E-18  -7.26057166677554E-19   9.18592821337189E-17  -5.33607526669127E-19
      8.65668126933116E-17  -5.33555327689073E-19  -3.92796653876928E-18  -7.29644567388423E-19   0.00000000000000E+00
      1.79577010221305E-18
      1.00000000000000E+06
     -1.02212553176806E-33   1.85314544003570E-34  -5.57142857142857E-01   7.92644169487795E-39   5.12443121716717E-04
      2.38493329864894E-17  -5.12443121710754E-04   5.64976740870998E-18  -4.48071256844067E-17  -2.79925814307988E-17
      6.04820177658528E-18  -5.55407798623233E-19  -5.12443121710117E-04   6.96593749205251E-18   5.12443121703365E-04
      2.96490183654378E-17   1.18642527998905E-18  -2.79711489908244E-17   4.82505076934720E-17  -5.55022802493315E-19
     -6.39325344006357E-18  -2.79981237611109E-17  -6.39270615873003E-18  -2.79963529637246E-17   0.00000000000000E+00
      5.66527580122880E-17  -1.71813499805550E-18  -6.58281128778990E-19   7.02834931388655E-17  -5.52595913254083E-19
      5.89416140577326E-17  -5.52537317739742E-19  -1.63008103602133E-18  -6.63980153251206E-19   1.48359829598058E-16
      1.76995105904647E-18
      1.00000000000000E+06
      7.79933277786355E-35  -1.11462381561106E-34  -6.50000000000000E-01   5.64451709316455E-39   6.51826722510358E-04
      3.80589913283408E-17  -6.51826722552435E-04   1.15152532132800E-17  -5.81438146465329E-17  -2.90842645476721E-17
      3.17288063683348E-16  -5.78427200978494E-19  -6.51826722544788E-04   9.68744015067596E-18   6.51826722541662E-04
      3.28859548615408E-17  -8.77228891973976E-17  -2.91031195830382E-17   2.60535864235218E-16  -5.78585559790713E-19
     -6.80943639696443E-18  -2.91436736028965E-17  -6.80891864084065E-18  -2.91419173014214E-17   0.00000000000000E+00
      5.88750843739279E-17  -1.43018375896094E-18  -5.89493738347341E-19   3.02798188061499E-16  -5.75071969187960E-19
      2.81453359650251E-16  -5.75007031879899E-19   9.31460698688885E-19  -5.97629988421293E-19   0.00000000000000E+00
      1.74918120595537E-18
}
