DF-ISE text

Info {
  version   = 1.0
  type      = xyplot
  datasets  = [
    "frequency"
    "v(d)" "v(s)" "v(g)" "v(b)" "a(d,d)"
    "c(d,d)" "a(d,s)" "c(d,s)" "a(d,g)" "c(d,g)"
    "a(d,b)" "c(d,b)" "a(s,d)" "c(s,d)" "a(s,s)"
    "c(s,s)" "a(s,g)" "c(s,g)" "a(s,b)" "c(s,b)"
    "a(g,d)" "c(g,d)" "a(g,s)" "c(g,s)" "a(g,g)"
    "c(g,g)" "a(g,b)" "c(g,b)" "a(b,d)" "c(b,d)"
    "a(b,s)" "c(b,s)" "a(b,g)" "c(b,g)" "a(b,b)"
    "c(b,b)" ]
  functions = [
    Frequency
    Voltage Voltage Voltage Voltage Admittance
    Capacitance Admittance Capacitance Admittance Capacitance
    Admittance Capacitance Admittance Capacitance Admittance
    Capacitance Admittance Capacitance Admittance Capacitance
    Admittance Capacitance Admittance Capacitance Admittance
    Capacitance Admittance Capacitance Admittance Capacitance
    Admittance Capacitance Admittance Capacitance Admittance
    Capacitance ]
}

Data {
      1.00000000000000E+06
      3.24978266740520E-46   1.52059921698558E-46  -6.50000000000000E-01  -5.02594554551429E-49   0.00000000000000E+00
      1.10969914968199E-17   5.56809254280241E-20  -1.77828692983042E-20  -1.47386820989769E-18  -1.08354581911831E-17
     -5.85985816317050E-18  -1.59281064457316E-19   2.11399204696008E-19  -1.77830915162837E-20   0.00000000000000E+00
      1.10610753759010E-17  -1.50362565121209E-18  -1.08354922541268E-17  -4.93246676515656E-18  -1.59264318287454E-19
     -1.20735335640317E-18  -1.08356686924642E-17  -1.20761833949525E-18  -1.08356247289648E-17   0.00000000000000E+00
      2.25211978449317E-17  -4.73622533992296E-18  -8.49904423402656E-19  -8.90438173021050E-19  -1.59210633175387E-19
     -8.89399304635498E-19  -1.59190762504506E-19  -4.67940732395665E-18  -8.50054044946114E-19   1.48359829598058E-16
      1.16846780187591E-18
      1.00000000000000E+06
     -3.11689420499450E-34  -7.38178078490338E-35  -5.57142857142857E-01   3.65521912959833E-36   0.00000000000000E+00
      1.12118257893717E-17  -2.37440432593434E-18  -1.98855637151459E-20  -1.47743843730970E-18  -1.10322291308476E-17
     -9.52039857810140E-19  -1.48581813297833E-19  -2.37352846735757E-18  -1.98856384289881E-20   0.00000000000000E+00
      1.11903998850244E-17  -1.40432294963769E-18  -1.10322135370767E-17  -8.64722835790690E-19  -1.48563656122723E-19
     -1.41390283775072E-18  -1.10323214521073E-17  -1.41416415127342E-18  -1.10322822570156E-17   0.00000000000000E+00
      2.28320386113770E-17  -3.59725773419098E-18  -7.67434902070741E-19  -7.24495433588174E-19  -1.48505868537943E-19
     -7.24891714947719E-19  -1.48487058363246E-19  -3.59850976154584E-18  -7.67587745295035E-19   0.00000000000000E+00
      1.06455020613848E-18
      1.00000000000000E+06
     -8.82829060308149E-33  -3.21162018946381E-32  -4.64285714285714E-01  -1.56100622952002E-34   0.00000000000000E+00
      1.14288472707212E-17  -6.48856016467753E-17  -2.20522897109117E-20  -1.55636517495209E-18  -1.12643495151276E-17
     -8.74928112271520E-19  -1.40813904992242E-19  -6.48830753656814E-17  -2.20526276769622E-20   0.00000000000000E+00
      1.13215902794136E-17  -1.51769430115274E-18  -1.12643820548991E-17  -3.09560036100454E-19  -1.40798456902460E-19
     -1.58938924087558E-18  -1.12644316079142E-17  -1.58965102550556E-18  -1.12643974318875E-17   0.00000000000000E+00
      2.32380849514517E-17  -2.93452996858829E-18  -7.09255911317083E-19  -6.13963057926864E-19  -1.40733903507720E-19
     -6.12439516447185E-19  -1.40716038473133E-19  -2.93422588768934E-18  -7.09415871646765E-19   0.00000000000000E+00
      9.90880941736546E-19
      1.00000000000000E+06
     -2.20085669122951E-36   5.73421232087907E-36  -3.71428571428571E-01   2.70952955229822E-38   1.48359829598058E-16
      1.17577227027740E-17  -1.73376855361833E-15  -2.43980270466020E-20  -2.04798710688946E-18  -1.15379423932986E-17
      1.66586457507740E-18  -1.34755796739657E-19  -1.73374105977128E-15  -2.43989433860993E-20   0.00000000000000E+00
      1.15018768425365E-17  -1.78027460785386E-18  -1.15381246855639E-17  -8.76465136700026E-19  -1.34744502822043E-19
     -1.76463865462001E-18  -1.15381084213873E-17  -1.76490341091869E-18  -1.15380792061460E-17   0.00000000000000E+00
      2.37384939775040E-17  -2.45485820292547E-18  -6.62306349892958E-19  -5.31699184031788E-19  -1.34669664308347E-19
     -5.29095978048377E-19  -1.34652646760931E-19  -2.45534891317580E-18  -6.62482556803035E-19   0.00000000000000E+00
      9.31774296760280E-19
      1.00000000000000E+06
     -4.51249198647765E-36   3.38620717742091E-36  -2.78571428571429E-01  -1.00995964316865E-39   4.05022334802699E-14
      1.23321307883685E-17  -4.66980824628744E-14  -2.69344377743207E-20  -2.47782632601612E-18  -1.18402735672554E-17
     -1.60115331955387E-18  -1.29920016757072E-19  -4.66978527663331E-14  -2.69363048936791E-20   4.07989531394661E-14
      1.19508801506833E-17  -2.15036439056311E-18  -1.18406960342071E-17   6.95708935311052E-20  -1.29914935812196E-19
     -1.94317229410160E-18  -1.18407840157389E-17  -1.94344202420061E-18  -1.18407591209637E-17   0.00000000000000E+00
      2.43039902842911E-17  -2.08279023505083E-18  -6.22447154045732E-19  -4.62552955155191E-19  -1.29827791857929E-19
     -4.65072852795362E-19  -1.29811447233957E-19  -2.08335425487761E-18  -6.22652502206320E-19   0.00000000000000E+00
      8.82305804468781E-19
      1.00000000000000E+06
      7.63676282350498E-33   2.50361761254454E-33  -1.85714285714286E-01   1.83464275359280E-36   1.25453071908118E-12
      1.22854330005122E-17  -1.25320915840533E-12  -2.96557784904543E-20  -2.16129286147269E-18  -1.21585320945961E-17
     -4.04553935352868E-19  -1.26165977188872E-19  -1.25320919905734E-12  -2.96553386821997E-20   1.25319548061480E-12
      1.23817033313229E-17  -2.25139624266897E-18  -1.21584170714658E-17  -3.47355244556292E-19  -1.26147922053027E-19
     -2.12235957040055E-18  -1.21586250091813E-17  -2.12263558261333E-18  -1.21586035788703E-17   0.00000000000000E+00
      2.49052334337110E-17  -1.78897611069394E-18  -5.88004846632876E-19  -4.19702016568290E-19  -1.26037967752103E-19
     -4.17261247205808E-19  -1.26022061927429E-19  -1.79017226809053E-18  -5.88259111590368E-19   0.00000000000000E+00
      8.40324546071409E-19
      1.00000000000000E+06
     -1.33840972496170E-36  -7.36146615162388E-37  -9.28571428571429E-02  -1.68763932315474E-41   3.32492181308801E-11
      1.25943317468948E-17  -3.32489307489395E-11  -3.26547398754129E-20  -2.29622019651505E-18  -1.24948214274376E-17
     -3.33108726736649E-19  -1.23312959873193E-19  -3.32489307493143E-11  -3.26544479921646E-20   3.32492181308801E-11
      1.26457604203351E-17  -2.34396680789712E-18  -1.24947362883202E-17  -4.82946731975159E-19  -1.23295859216574E-19
     -2.30747779932832E-18  -1.24949166330771E-17  -2.30776177637116E-18  -1.24948982329205E-17   1.48359829598058E-16
      2.55472862866448E-17  -1.55056189118893E-18  -5.57471420855880E-19  -3.07713921595229E-19  -1.23144543998872E-19
     -4.59315763101217E-19  -1.23128820911314E-19  -1.65505185626574E-18  -5.57805552857754E-19   0.00000000000000E+00
      8.04079756696379E-19
      1.00000000000000E+06
      2.64054104536806E-36  -5.39780735703441E-37  -5.42101086242752E-20   7.10161645033809E-43   8.65630350241244E-10
      1.30644190437974E-17  -8.65630639866978E-10  -3.62051200289523E-20  -2.66401158435499E-18  -1.28743143643230E-17
     -3.27222363189198E-19  -1.21230353602165E-19  -8.65630639829268E-10  -3.62056016268560E-20   8.65630646960903E-10
      1.29916687793995E-17  -2.36760163556219E-18  -1.28743905841971E-17  -3.67627027924853E-19  -1.21215526720238E-19
     -2.51628397909115E-18  -1.28745917064712E-17  -2.51657886234693E-18  -1.28745769319728E-17   0.00000000000000E+00
      2.62782781554576E-17  -1.34494110061391E-18  -5.29109516705169E-19  -1.02349570367443E-18  -1.20998193640684E-19
     -1.29803505213128E-18  -1.20982391297670E-19  -5.25275997443605E-18  -5.29574435048242E-19   0.00000000000000E+00
      7.71707896403686E-19
      1.00000000000000E+06
     -3.34393773357049E-36   2.47115508058154E-38   9.28571428571429E-02  -1.21873527473197E-41   2.18700634119382E-08
      1.35203960978407E-17  -2.18700624475165E-08  -4.04263973650352E-20  -2.96425440856711E-18  -1.33510494944616E-17
     -3.04062853364897E-19  -1.20083104263832E-19  -2.18700624474609E-08  -4.04271154855635E-20   2.18700631152185E-08
      1.35026907791844E-17  -2.53543206838872E-18  -1.33510663258977E-17  -3.17648281900100E-19  -1.20067086085898E-19
     -2.78486620107404E-18  -1.33514069488634E-17  -2.78517847057152E-18  -1.33513984151868E-17   1.48359829598058E-16
      2.72045747137475E-17  -1.16103526404665E-18  -5.01769349458098E-19  -6.59825649419242E-19  -1.19739193491137E-19
     -7.19465363105618E-19  -1.19723191399190E-19  -2.87127471796416E-18  -5.02457307166728E-19   0.00000000000000E+00
      7.41870589418783E-19
      1.00000000000000E+06
     -1.04939622288301E-35  -8.30937997185191E-36   1.85714285714286E-01   5.74129099651386E-41   5.22353983715176E-07
      1.42971221921773E-17  -5.22353983574544E-07  -3.30559620515995E-20  -3.09780434924407E-18  -1.40731202098634E-17
     -3.12464021471278E-19  -1.20621507083168E-19  -5.22353983573014E-07  -3.31819083465827E-20   5.22353984011896E-07
      1.41437403056570E-17  -3.03472483731415E-18  -1.40734385452394E-17  -2.85786827411174E-19  -1.20607252167055E-19
     -3.22706075125892E-18  -1.40738199003457E-17  -3.22740594523802E-18  -1.40738241127103E-17   0.00000000000000E+00
      2.86221530368583E-17  -9.98240296161804E-19  -4.74509023864935E-19  -3.46486547658007E-19  -1.20072315677546E-19
     -3.40337572556161E-19  -1.20056317179225E-19  -1.17371219445127E-18  -4.75608841922304E-19   0.00000000000000E+00
      7.15749207259350E-19
      1.00000000000000E+06
     -1.74504176630874E-34   4.66123357030145E-34   2.78571428571429E-01  -2.11013746922041E-40   1.04531342355371E-05
      1.55857221141993E-17  -1.04531342360121E-05   2.97667165351033E-19  -4.92480951300791E-18  -1.57839942532467E-17
     -2.98681774417778E-19  -1.25387253214451E-19  -1.04531342360116E-05   2.98051874962036E-19   1.04531342347954E-05
      1.56087328772235E-17  -4.58624819358706E-18  -1.57839188198399E-17  -2.95420535559218E-19  -1.25371668967695E-19
     -4.64527226316021E-18  -1.57849103689620E-17  -4.64569332353582E-18  -1.57849336266774E-17   0.00000000000000E+00
      3.20128340282155E-17  -8.43897590094212E-19  -4.42990032261246E-19  -5.27560811578337E-19  -1.24363097099521E-19
     -3.30591697936122E-19  -1.24347816017920E-19  -8.61793787893608E-19  -4.45037676119666E-19   1.48359829598058E-16
      6.93750789047497E-19
      1.00000000000000E+06
     -1.97833481687362E-34  -3.17615139885080E-34   3.71428571428571E-01  -4.39937983387458E-40   9.46502353018196E-05
      1.75597923861583E-17  -9.46502353038639E-05   3.35772541483039E-18  -3.50937135107381E-17  -2.07444516559343E-17
     -3.62383983210352E-19  -1.43796300526465E-19  -9.46502353038552E-05   3.36906499606605E-18   9.46502353041934E-05
      1.76423049782129E-17  -6.39691746005237E-18  -2.07437818173406E-17  -3.35469254048451E-19  -1.43777995946070E-19
     -1.07513796682833E-17  -2.07469811859197E-17  -1.07518624881784E-17  -2.07469309594778E-17   0.00000000000000E+00
      4.18831007535963E-17  -6.24495646644864E-19  -3.89188628444308E-19   1.61539422837010E-17  -1.41481437760977E-19
      2.08571453575555E-17  -1.41465041337117E-19  -2.05328621483313E-18  -3.93818681737462E-19   1.48359829598058E-16
      6.76908447805296E-19
      1.00000000000000E+06
      3.92006340038994E-34  -4.48518603586093E-34   4.64285714285714E-01  -3.15966705751103E-39   2.45816664237600E-04
      2.31801035930110E-17  -2.45816664248856E-04   9.96820212188262E-18  -9.92586483219363E-17  -2.53832990967738E-17
     -3.04664673389324E-19  -1.73278727683528E-19  -2.45816664246668E-04   8.81062691709054E-18   2.45816664242941E-04
      2.06470975418689E-17   4.49097960349492E-17  -2.54155522882711E-17  -2.99215755155776E-19  -1.73295108735379E-19
     -1.67208260778064E-17  -2.54488377509522E-17  -1.67209875756158E-17  -2.54484785604990E-17   0.00000000000000E+00
      5.12154836974444E-17  -3.62596435132888E-19  -3.18167509564461E-19  -2.64651134957029E-18  -1.70021710762802E-19
     -4.77054972575463E-18  -1.69998157452064E-19  -2.47939535956189E-18  -3.24907985111883E-19   0.00000000000000E+00
      6.64958743562861E-19
      1.00000000000000E+06
      4.39871433278835E-33  -2.88789180453508E-33   5.57142857142857E-01  -2.02608594056057E-37   3.65244285389620E-04
      1.54793017284378E-17  -3.65244285401603E-04   8.59199350715677E-18  -6.93498628462519E-17  -2.76316695864421E-17
     -8.34778106332357E-19  -1.91155593609995E-19  -3.65244285398272E-04   8.82259050776776E-18   3.65244285394219E-04
      1.57066078717905E-17   6.17056963610465E-19  -2.76259497270294E-17  -4.90582295467536E-19  -1.91128250402825E-19
     -1.87063744105380E-17  -2.76058573964740E-17  -1.87061690786157E-17  -2.76051951876226E-17   0.00000000000000E+00
      5.54837195869766E-17  -2.16114581937986E-19  -2.72666728245155E-19   1.78697763922366E-16  -1.88267420800951E-19
      1.81395498571755E-16  -1.88237313186494E-19   2.85534589183855E-18  -2.78348809965970E-19   0.00000000000000E+00
      6.55063064965477E-19
      1.00000000000000E+06
      3.36550609421829E-35  -2.53412835379032E-35   6.50000000000000E-01  -1.59498453372060E-39   4.50731854028603E-04
      1.82209447018207E-17  -4.50731854103225E-04   1.17753149396194E-17  -3.37342035206535E-16  -2.86762194294273E-17
     -1.66383051516713E-18  -2.00486885686570E-19  -4.50731854077755E-04   1.42915306763598E-17   4.50731854046851E-04
      2.15541222831258E-17  -3.02078264335840E-17  -2.86373726435438E-17  -8.16941585146629E-19  -2.00372336684522E-19
     -1.93257798044364E-17  -2.86856937157380E-17  -1.93253170569288E-17  -2.86848186592512E-17   0.00000000000000E+00
      5.76149338297311E-17  -1.31934363570594E-19  -2.44422131453289E-19   1.29673349244742E-17  -1.98457432923922E-19
      1.29536538810507E-17  -1.98423524540191E-19  -8.33938366682336E-19  -2.48506236113448E-19   0.00000000000000E+00
      6.45386059827917E-19
}
