DF-ISE text

Info {
  version   = 1.0
  type      = xyplot
  datasets  = [
    "frequency"
    "v(d)" "v(s)" "v(g)" "v(b)" "a(d,d)"
    "c(d,d)" "a(d,s)" "c(d,s)" "a(d,g)" "c(d,g)"
    "a(d,b)" "c(d,b)" "a(s,d)" "c(s,d)" "a(s,s)"
    "c(s,s)" "a(s,g)" "c(s,g)" "a(s,b)" "c(s,b)"
    "a(g,d)" "c(g,d)" "a(g,s)" "c(g,s)" "a(g,g)"
    "c(g,g)" "a(g,b)" "c(g,b)" "a(b,d)" "c(b,d)"
    "a(b,s)" "c(b,s)" "a(b,g)" "c(b,g)" "a(b,b)"
    "c(b,b)" ]
  functions = [
    Frequency
    Voltage Voltage Voltage Voltage Admittance
    Capacitance Admittance Capacitance Admittance Capacitance
    Admittance Capacitance Admittance Capacitance Admittance
    Capacitance Admittance Capacitance Admittance Capacitance
    Admittance Capacitance Admittance Capacitance Admittance
    Capacitance Admittance Capacitance Admittance Capacitance
    Admittance Capacitance Admittance Capacitance Admittance
    Capacitance ]
}

Data {
      1.00000000000000E+06
      1.96821513152116E-46  -3.39222402884960E-49  -6.50000000000000E-01   2.90929651170534E-49   7.86307096869710E-14
      1.67542659016009E-17  -8.61881264245357E-14  -4.13657058800006E-19  -1.46520677144496E-19  -1.57012755233731E-17
     -1.67471176564722E-17  -4.71890769534482E-19  -8.61881652042051E-14  -4.13672138419301E-19   7.83339900277748E-14
      1.61888540872536E-17  -4.08923068606694E-19  -1.57016223422821E-17  -4.23889425637185E-18  -4.71869368265814E-19
     -2.66951091230865E-19  -1.57014706437405E-17  -2.67136111009799E-19  -1.57014457882306E-17   0.00000000000000E+00
      3.25216119750399E-17  -3.58349591131501E-18  -1.11869554220790E-18  -1.55553492297602E-18  -4.71810890404982E-19
     -1.54485384940733E-18  -4.71765240161461E-19  -3.56383698481236E-18  -1.11886946926916E-18   0.00000000000000E+00
      2.06217307648663E-18
      1.00000000000000E+06
      7.49701944140114E-35  -5.85204959844230E-35  -5.57142857142857E-01   2.19762243350527E-37   9.93417418988599E-13
      1.66670720790825E-17  -9.96277687739873E-13  -4.30782153786206E-19  -3.09590640446258E-19  -1.59003989527216E-17
     -1.60095506287183E-17  -4.56228991568243E-19  -9.96279889442975E-13  -4.30789851123165E-19   9.92527260011011E-13
      1.63863716129785E-17  -7.23600257598037E-19  -1.59005733159106E-17  -3.58030367085826E-17  -4.56196140458638E-19
     -3.87155040704138E-19  -1.59004096978071E-17  -3.87338414312596E-19  -1.59003878169111E-17   0.00000000000000E+00
      3.28642154634019E-17  -3.16671850475370E-18  -1.06341794951208E-18  -1.43779545475197E-18  -4.56133423603744E-19
     -1.46485730280390E-18  -4.56088910729027E-19  -3.27017964897686E-18  -1.06360197451447E-18   1.48359829598058E-16
      1.97430269494841E-18
      1.00000000000000E+06
     -2.65263515791881E-32   2.38994853738709E-33  -4.64285714285714E-01  -2.87939095357886E-36   1.12952272666186E-11
      1.69216898034482E-17  -1.12923982756092E-11  -4.49414668975139E-19  -5.18176147243859E-19  -1.61115778074247E-17
     -7.09181862837832E-18  -4.42883893133619E-19  -1.12923972781546E-11  -4.49404065702595E-19   1.12940403879818E-11
      1.72510631480750E-17  -4.39494610265531E-19  -1.61113182431091E-17  -2.28271325334019E-17  -4.42826076130475E-19
     -4.94268324208792E-19  -1.61116162354887E-17  -4.94452147139402E-19  -1.61115972880264E-17   0.00000000000000E+00
      3.32385177731741E-17  -2.83488589669383E-18  -1.01530424894076E-18  -1.31029446494014E-18  -4.42783641500036E-19
     -1.29666570587088E-18  -4.42740243115113E-19  -2.85445501395943E-18  -1.01550018810193E-18   0.00000000000000E+00
      1.89997083213015E-18
      1.00000000000000E+06
     -5.28864030334688E-37   8.15625986284324E-37  -3.71428571428571E-01  -1.51664336025275E-40   1.25123119647092E-10
      1.12015490201434E-17  -1.25118077024046E-10  -4.70549121975259E-19   1.42679544438362E-17  -1.63445201902827E-17
     -1.91955265221572E-16  -4.31586509982176E-19  -1.25118064694186E-10  -4.70556031238709E-19   1.25156648968581E-10
      1.08977824983452E-17   1.43876745526895E-17  -1.63449379244444E-17  -4.66882426206674E-16  -4.31583354153439E-19
     -5.94930101880135E-19  -1.63400490171282E-17  -5.95115988506952E-19  -1.63400330894273E-17   0.00000000000000E+00
      3.36523469239531E-17  -2.55640048830855E-18  -9.72264820403218E-19  -1.04758524287052E-18  -4.31249338471718E-19
     -1.08124577381696E-18  -4.31206929337106E-19  -2.61112708648019E-18  -9.72472694579056E-19   0.00000000000000E+00
      1.83918503952129E-18
      1.00000000000000E+06
      4.67318544020058E-32  -1.57653071472106E-32  -2.78571428571429E-01  -1.40183151386204E-35   1.34904616736339E-09
      1.89402179612166E-17  -1.34904525762598E-09  -4.94657812408654E-19  -7.91399232096618E-19  -1.65919172938950E-17
     -1.83788476057297E-17  -4.21419637819999E-19  -1.34904525573277E-09  -4.94721593315138E-19   1.34904394196594E-09
      1.74861484561930E-17  -4.15265410812553E-19  -1.65931252669199E-17   9.71875107306412E-18  -4.21436052958424E-19
     -6.93462568040762E-19  -1.65932364987206E-17  -6.93651052215441E-19  -1.65932238353123E-17   0.00000000000000E+00
      3.41197243395664E-17  -2.31922895153347E-18  -9.33263988869242E-19  -1.07886966573508E-18  -4.21358422230644E-19
     -1.06775524117909E-18  -4.21316898741242E-19  -2.31289322608106E-18  -9.33500508739567E-19   0.00000000000000E+00
      1.77626734009701E-18
      1.00000000000000E+06
     -1.15329761434207E-33   3.98439926043527E-34  -1.85714285714286E-01  -3.96700912331655E-36   1.40549731990118E-08
      1.81227627170181E-17  -1.40549713682593E-08  -5.24721742567489E-19  -4.74767375117970E-19  -1.68838173818127E-17
     -2.81478704143169E-18  -4.13194349841515E-19  -1.40549713688757E-08  -5.24735791039581E-19   1.40549705285348E-08
      1.78807471251562E-17  -7.71107974805856E-19  -1.68840314559901E-17   3.13243339961937E-18  -4.13163100216269E-19
     -7.94975035599845E-19  -1.68842317262476E-17  -7.95164159425635E-19  -1.68842227599886E-17   0.00000000000000E+00
      3.46661073109474E-17  -2.11666039968368E-18  -8.97652828326673E-19  -1.00878469791638E-18  -4.13071839304610E-19
     -9.86127256857054E-19  -4.13031161607700E-19  -2.11668342086204E-18  -8.97925527307781E-19   0.00000000000000E+00
      1.72176274787440E-18
      1.00000000000000E+06
      6.11639260764107E-33   1.08393701006592E-32  -9.28571428571429E-02   2.02719906841936E-37   1.39724266948184E-07
      1.89288411504844E-17  -1.39724266529171E-07  -5.64188075777669E-19  -6.64788201815485E-19  -1.72385400444668E-17
     -2.97592878796850E-18  -4.06454253109212E-19  -1.39724266528635E-07  -5.64288296375247E-19   1.39724267096543E-07
      1.81154678801655E-17  -6.66198659846451E-19  -1.72393901777796E-17   6.48201972999927E-19  -4.06447416796183E-19
     -9.09643210455970E-19  -1.72394505946862E-17  -9.09835793377408E-19  -1.72394460630773E-17   0.00000000000000E+00
      3.53434862248762E-17  -1.94142209830845E-18  -8.64589570574502E-19  -2.45255147847213E-17  -4.06333661772476E-19
     -2.72526980704505E-17  -4.06294782418935E-19  -3.57573544919704E-17  -8.64930294908809E-19  -3.16006437043864E-14
      1.65199059932398E-18
      1.00000000000000E+06
     -4.93141651561397E-33  -1.16999884887114E-32  -5.42101086242752E-20  -3.88106635085052E-37   1.28991299356941E-06
      2.01206119459553E-17  -1.28991299502404E-06  -6.13988853032568E-19   7.96944523666701E-19  -1.77220802423438E-17
      1.54753985538084E-18  -4.01199507952019E-19  -1.28991299502461E-06  -6.14894699070916E-19   1.28991299416285E-06
      1.86720898803713E-17  -8.03953307843693E-19  -1.77238664499847E-17  -9.79854001113856E-19  -4.01220118361015E-19
     -1.06590608362020E-18  -1.77239722329638E-17  -1.06610354803908E-18  -1.77239732222570E-17   0.00000000000000E+00
      3.62807511507435E-17  -1.78450747116073E-18  -8.32805695520097E-19  -5.63339748546492E-18  -4.01062724964943E-19
     -7.27482204453926E-18  -4.01023524749161E-19  -1.60471168446968E-17  -8.33194281972434E-19  -3.26391625115728E-15
      1.63480088770743E-18
      1.00000000000000E+06
     -1.98198825287837E-36  -9.38096417638721E-39   9.28571428571429E-02  -3.39642879486036E-43   1.02715181485794E-05
      2.07058167668380E-17  -1.02715181484258E-05  -6.08409074069268E-19  -3.04696774278832E-18  -1.85211338823625E-17
      2.78538967125474E-17  -3.97786706996819E-19  -1.02715181483984E-05  -6.07461814777043E-19   1.02715181466507E-05
      2.10458366344229E-17  -2.99517949707427E-18  -1.85205938780055E-17  -5.19882221193304E-18  -3.97727135097272E-19
     -1.36938058785219E-18  -1.85231451542851E-17  -1.36958648654302E-18  -1.85231523528507E-17   0.00000000000000E+00
      3.78467410185407E-17  -1.63616700658234E-18  -8.00443510186124E-19  -2.31696962492018E-18  -3.97590951219358E-19
      1.11049210016505E-18  -3.97552259841600E-19  -5.65939620668193E-18  -8.00935565814163E-19   0.00000000000000E+00
      1.59530901426148E-18
      1.00000000000000E+06
      3.60820214399829E-33  -3.40238030664278E-33   1.85714285714286E-01   1.62741809853081E-39   5.81399571080604E-05
      2.30723498047161E-17  -5.81399571057202E-05  -8.31737981277032E-20   2.73860192729270E-18  -1.99985646150223E-17
     -4.96738586406212E-17  -3.97364333245299E-19  -5.81399571056850E-05  -1.94338896672704E-19   5.81399571089506E-05
      1.83781520355378E-17  -1.04076212412082E-18  -2.00068323754240E-17  -3.27656217458237E-17  -3.97550648843105E-19
     -2.10756500203832E-18  -2.00033124198052E-17  -2.10778332686682E-18  -2.00033205099083E-17   0.00000000000000E+00
      4.07711755169419E-17  -1.48600515490155E-18  -7.64542594427843E-19   8.14290932258191E-18  -3.97156049264051E-19
      2.54880521263563E-17  -3.97116738911418E-19  -3.79630582541054E-18  -7.65193451653019E-19   0.00000000000000E+00
      1.56202235038834E-18
      1.00000000000000E+06
     -7.74503536424786E-35   3.08364290284039E-34   2.78571428571429E-01  -1.02293680715683E-40   1.86808995753772E-04
      1.92734625735761E-17  -1.86808995757054E-04   1.17227891355585E-18   3.23966847003022E-17  -2.20216371728971E-17
     -4.52942430347259E-17  -4.01867942406705E-19  -1.86808995757253E-04   1.37892570209220E-18   1.86808995752585E-04
      2.18526649925405E-17  -5.25464858575087E-18  -2.20160161060496E-17  -5.56018676114032E-17  -4.01693814879703E-19
     -3.21120477054814E-18  -2.20180711622578E-17  -3.21142677380449E-18  -2.20180585251728E-17   1.48359829598058E-16
      4.47586913431460E-17  -1.32836326314799E-18  -7.22561505707832E-19   1.60128405990342E-17  -4.01311134631954E-19
     -2.99867181356783E-17  -4.01268427873661E-19  -3.11051464737047E-18  -7.23482202330314E-19   0.00000000000000E+00
      1.53082170021845E-18
      1.00000000000000E+06
     -2.09794898409465E-34   4.90884480139463E-35   3.71428571428571E-01   3.48500091064310E-41   3.68551476921094E-04
      3.33984713850616E-17  -3.68551476851951E-04   5.30122605089300E-18   2.09112478287646E-16  -2.37408355583906E-17
     -2.56325177593636E-17  -4.10020954600093E-19  -3.68551476820502E-04   4.27555650892796E-18   3.68551477155650E-04
      2.77857530703295E-17   7.39127992229100E-16  -2.37577006244242E-17   9.01862733364205E-17  -4.10224451978770E-19
     -4.04098828877649E-18  -2.37762846639124E-17  -4.04118239248443E-18  -2.37762231084511E-17   0.00000000000000E+00
      4.82283341868361E-17  -1.17093717400055E-18  -6.75826952620099E-19  -8.07173953795267E-18  -4.09915944034362E-19
      6.06706122631068E-18  -4.09867583540252E-19  -5.41699830517808E-19  -6.77249099442434E-19   0.00000000000000E+00
      1.49357127432396E-18
      1.00000000000000E+06
      2.18353107319873E-35  -1.28037149694740E-35   4.64285714285714E-01   1.73717053774593E-41   5.55740491827294E-04
      4.75173345466463E-17  -5.55740491882356E-04   1.20246892620038E-17  -1.65391603254245E-16  -2.50291687790958E-17
      2.23963247656881E-16  -4.22510556814552E-19  -5.55740491842716E-04   9.47820905598881E-18   5.55740492064818E-04
      3.90307287551283E-17   3.48647487221650E-16  -2.50596964257351E-17   8.69603102603694E-16  -4.22764540532195E-19
     -4.55152745687278E-18  -2.51198162820071E-17  -4.55170381272487E-18  -2.51196871875688E-17   0.00000000000000E+00
      5.08653289260609E-17  -1.01948706031913E-18  -6.25823809812744E-19   1.56920981414165E-16  -4.22640890868402E-19
      2.09233069716671E-16  -4.22584622912109E-19  -3.97348443731077E-18  -6.28131273269459E-19   0.00000000000000E+00
      1.47812962965393E-18
      1.00000000000000E+06
      2.89699522115381E-36   3.91065454350210E-36   5.57142857142857E-01  -1.29567618566098E-42   7.30448824778538E-04
      3.97044471242616E-17  -7.30448824755401E-04   1.31761868829098E-17   2.41639320743639E-16  -2.61354311654478E-17
      3.67595484816634E-16  -4.41673223429716E-19  -7.30448824733570E-04  -7.62382098270395E-18   7.30448824808210E-04
     -2.00184996059475E-17   3.42814759342641E-16  -2.63607632516868E-17   3.74964072978577E-16  -4.44476858570894E-19
     -4.92733356472594E-18  -2.62120781929060E-17  -4.92750831758666E-18  -2.62118733366250E-17   0.00000000000000E+00
      5.29947118579250E-17  -8.67746302727162E-19  -5.70761632737078E-19   3.04836597890098E-15  -4.40743811467024E-19
      3.36046390991127E-15  -4.40679940180956E-19   1.60011125560705E-17  -5.74437345390206E-19   1.48359829598058E-16
      1.45663720341934E-18
      1.00000000000000E+06
      6.58437534673801E-34  -6.38152778767452E-34   6.50000000000000E-01  -1.75066059335865E-38   8.89368028033941E-04
      2.68958733318779E-17  -8.89368028030477E-04   1.03021149734839E-17   6.60055390727739E-17  -2.71304037089631E-17
      1.63633048556326E-16  -4.66802610857027E-19  -8.89368028051004E-04   5.99131031179515E-18   8.89368028026968E-04
      1.70864114533413E-17  -7.70945520219117E-17  -2.71713731316067E-17   2.77081287148292E-17  -4.67167113100236E-19
     -5.25966279816246E-18  -2.71613676394182E-17  -5.25979626035766E-18  -2.71610835465478E-17   0.00000000000000E+00
      5.48327366600007E-17  -7.11645119594564E-19  -5.10283264722461E-19   5.76751731978171E-17  -4.64528676669045E-19
      1.36008571168445E-16  -4.64457040008917E-19  -9.20456400825201E-19  -5.15414038044945E-19   0.00000000000000E+00
      1.44802444062863E-18
}
