DF-ISE text

Info {
  version   = 1.0
  type      = xyplot
  datasets  = [
    "ndrain OuterVoltage" "ndrain TotalCurrent" "nsource OuterVoltage" "nsource TotalCurrent" "substrate OuterVoltage" "ngate OuterVoltage" ]
  functions  = [
    OuterVoltage TotalCurrent OuterVoltage TotalCurrent OuterVoltage OuterVoltage ]
}

Data {
0.05 4.49997879856e-16 0.0 -4.49881802152e-16 0.0 -0.3
0.05 1.65020425294e-14 0.0 -1.6497941071e-14 0.0 -0.2
0.05 5.97574734651e-13 0.0 -5.9743703233e-13 0.0 -0.1
0.05 2.13057340389e-11 0.0 -2.13011681079e-11 0.0 0
0.05 7.43899601517e-10 0.0 -7.43750179465e-10 0.0 0.1
0.05 2.50353026086e-8 0.0 -2.50305367074e-8 0.0 0.2
0.05 7.0359629224e-7 0.0 -7.03463535711e-7 0.0 0.3
0.05 7.26347603344e-6 0.0 -7.26203373218e-6 0.0 0.4
0.05 2.16770495069e-5 0.0 -2.16752873231e-5 0.0 0.5
0.05 3.41918335039e-5 0.0 -3.41923926164e-5 0.0 0.6
0.05 3.85984348245e-5 0.0 -3.85997027843e-5 0.0 0.65
}
