DF-ISE text

Info {
  version   = 1.0
  type      = xyplot
  datasets  = [
    "ndrain OuterVoltage" "ndrain TotalCurrent" "nsource OuterVoltage" "nsource TotalCurrent" "substrate OuterVoltage" "ngate OuterVoltage" ]
  functions  = [
    OuterVoltage TotalCurrent OuterVoltage TotalCurrent OuterVoltage OuterVoltage ]
}

Data {
0.65 8.047600127e-16 0.0 -8.04550997781e-16 0.0 -0.3
0.65 3.00485734659e-14 0.0 -3.00416438386e-14 0.0 -0.2
0.65 1.10707728933e-12 0.0 -1.10683797483e-12 0.0 -0.1
0.65 4.00679723723e-11 0.0 -4.00598182514e-11 0.0 0
0.65 1.41128300656e-9 0.0 -1.41103574097e-9 0.0 0.1
0.65 4.69109993054e-8 0.0 -4.69037998937e-8 0.0 0.2
0.65 1.17604947891e-6 0.0 -1.17584406078e-6 0.0 0.3
0.65 9.46026330349e-6 0.0 -9.45805267671e-6 0.0 0.4
0.65 2.60526435393e-5 0.0 -2.60448777373e-5 0.0 0.5
0.65 4.64669454183e-5 0.0 -4.64518751605e-5 0.0 0.6
0.65 5.73798183971e-5 0.0 -5.73610055178e-5 0.0 0.65
}
