DF-ISE text

Info {
  version   = 1.0
  type      = xyplot
  datasets  = [
    "ndrain OuterVoltage" "ndrain TotalCurrent" "nsource OuterVoltage" "nsource TotalCurrent" "substrate OuterVoltage" "ngate OuterVoltage" ]
  functions  = [
    OuterVoltage TotalCurrent OuterVoltage TotalCurrent OuterVoltage OuterVoltage ]
}

Data {
0.05 1.44284127241e-11 0.0 -1.44282687277e-11 0.0 -0.3
0.05 1.91890433449e-10 0.0 -1.91888546935e-10 0.0 -0.2
0.05 2.46432664178e-9 0.0 -2.46430101546e-9 0.0 -0.1
0.05 2.99596428364e-8 0.0 -2.99592817768e-8 0.0 0
0.05 3.22281074174e-7 0.0 -3.2227583713e-7 0.0 0.1
0.05 2.44318628053e-6 0.0 -2.44311998187e-6 0.0 0.2
0.05 9.68373303595e-6 0.0 -9.68327362445e-6 0.0 0.3
0.05 2.22864356425e-5 0.0 -2.22849039507e-5 0.0 0.4
0.05 3.78809920158e-5 0.0 -3.78781348037e-5 0.0 0.5
0.05 5.37703986479e-5 0.0 -5.37669695205e-5 0.0 0.6
0.05 6.11849956437e-5 0.0 -6.11815877804e-5 0.0 0.65
}
