DF-ISE text

Info {
  version   = 1.0
  type      = xyplot
  datasets  = [
    "ndrain OuterVoltage" "ndrain TotalCurrent" "nsource OuterVoltage" "nsource TotalCurrent" "substrate OuterVoltage" "ngate OuterVoltage" ]
  functions  = [
    OuterVoltage TotalCurrent OuterVoltage TotalCurrent OuterVoltage OuterVoltage ]
}

Data {
0.65 2.43969787984e-10 0.0 -2.43964948625e-10 0.0 -0.3
0.65 3.12842986773e-9 0.0 -3.12837141802e-9 0.0 -0.2
0.65 3.72406217091e-8 0.0 -3.72399335822e-8 0.0 -0.1
0.65 3.79612074426e-7 0.0 -3.79604203277e-7 0.0 0
0.65 2.60730212474e-6 0.0 -2.60722486295e-6 0.0 0.1
0.65 9.60144409062e-6 0.0 -9.60097468629e-6 0.0 0.2
0.65 2.18053273859e-5 0.0 -2.18037516569e-5 0.0 0.3
0.65 3.77619049144e-5 0.0 -3.77583434316e-5 0.0 0.4
0.65 5.63823634102e-5 0.0 -5.63756731963e-5 0.0 0.5
0.65 7.69511043035e-5 0.0 -7.69396777244e-5 0.0 0.6
0.65 8.78096033811e-5 0.0 -8.77951221438e-5 0.0 0.65
}
