DF-ISE text

Info {
  version   = 1.0
  type      = xyplot
  datasets  = [
    "frequency"
    "v(d)" "v(s)" "v(g)" "v(b)" "a(d,d)"
    "c(d,d)" "a(d,s)" "c(d,s)" "a(d,g)" "c(d,g)"
    "a(d,b)" "c(d,b)" "a(s,d)" "c(s,d)" "a(s,s)"
    "c(s,s)" "a(s,g)" "c(s,g)" "a(s,b)" "c(s,b)"
    "a(g,d)" "c(g,d)" "a(g,s)" "c(g,s)" "a(g,g)"
    "c(g,g)" "a(g,b)" "c(g,b)" "a(b,d)" "c(b,d)"
    "a(b,s)" "c(b,s)" "a(b,g)" "c(b,g)" "a(b,b)"
    "c(b,b)" ]
  functions = [
    Frequency
    Voltage Voltage Voltage Voltage Admittance
    Capacitance Admittance Capacitance Admittance Capacitance
    Admittance Capacitance Admittance Capacitance Admittance
    Capacitance Admittance Capacitance Admittance Capacitance
    Admittance Capacitance Admittance Capacitance Admittance
    Capacitance Admittance Capacitance Admittance Capacitance
    Admittance Capacitance Admittance Capacitance Admittance
    Capacitance ]
}

Data {
      1.00000000000000E+06
     -4.97131731442152E-46   1.20042840859149E-45   6.50000000000000E-01  -1.46646811657712E-49   0.00000000000000E+00
      1.40865191689086E-17  -7.54594445723519E-20  -1.01689972723000E-20   2.66665777978329E-16  -1.27245073964946E-17
      6.02100541243182E-16  -1.56086607407961E-18  -4.00778175553136E-18  -1.01685503731224E-20   0.00000000000000E+00
      1.45669529374286E-17   1.87762222728481E-16  -1.27261038057972E-17  -9.90625852842667E-16  -1.56076608525408E-18
      2.22747876221028E-16  -1.27235791519929E-17   2.22742145901131E-16  -1.27256562840952E-17   0.00000000000000E+00
      4.54165624599192E-17  -3.72908563447678E-15  -1.99673274046265E-17  -2.56370519684246E-16  -1.56157504063697E-18
     -2.56244550596662E-16  -1.56153349495133E-18  -3.73810628164457E-15  -1.99658652108138E-17   0.00000000000000E+00
      2.30888058351145E-17
      1.00000000000000E+06
     -1.02084055715163E-37  -1.30959564819695E-38   5.57142857142857E-01  -1.05196969299369E-37   0.00000000000000E+00
      1.46303413456834E-17  -9.26884393279999E-17  -3.61934968860285E-20   7.13960012346275E-17  -1.36324743980013E-17
      1.32766509828244E-16  -7.81923786172808E-19  -9.06338348613918E-17  -3.61912396043651E-20   0.00000000000000E+00
      1.52327880069905E-17   8.50342548679594E-17  -1.36340047337671E-17   3.47388977889283E-16  -7.81882016253900E-19
      5.65805114853865E-17  -1.36321825324136E-17   5.65797865658530E-17  -1.36344424058176E-17   0.00000000000000E+00
      3.47861677617637E-17  -9.42782431785862E-16  -7.51954282994035E-18  -6.72997435729805E-17  -7.82403840647645E-19
     -6.72704172628966E-17  -7.82389069096008E-19  -9.43268524588612E-16  -7.51859248446492E-18   0.00000000000000E+00
      9.08360389705094E-18
      1.00000000000000E+06
      1.14302193101869E-36   1.68555448705846E-36   4.64285714285714E-01  -4.41923582504047E-36   0.00000000000000E+00
      1.47044405176183E-17  -1.73623263203427E-15  -5.45540540832884E-20   4.10019214666328E-18  -1.41924562504897E-17
     -5.17681238278826E-18  -4.31225388426357E-19  -1.73632133220904E-15  -5.45544431729119E-20   0.00000000000000E+00
      1.46492557987378E-17   2.28919650516478E-18  -1.41950042884809E-17  -2.53908670138442E-17  -4.31217527482104E-19
      3.79927226694430E-18  -1.41925965460252E-17   3.79865533149275E-18  -1.41950789173021E-17   1.48359829598058E-16
      3.04429093584316E-17  -5.90105139537262E-17  -2.05523390024227E-18  -7.41170232665022E-18  -4.31114330039108E-19
     -7.42311560527602E-18  -4.31105713556881E-19  -5.88803180247182E-17  -2.05546033907820E-18   0.00000000000000E+00
      2.91714245241963E-18
      1.00000000000000E+06
      1.32725485620746E-34   1.84412256825172E-34   3.71428571428571E-01   1.45437724040981E-35   3.47162001259457E-14
      1.48342746105038E-17  -3.92246501929795E-14  -6.20529402336736E-20   1.21979518929637E-18  -1.45171780273428E-17
      5.49893520121431E-18  -3.69003375627115E-19  -3.92246781596666E-14  -6.20529348067085E-20   3.27875223411709E-14
      1.48638972887095E-17  -1.36188528543835E-18  -1.45198381422633E-17  -2.03457705581066E-17  -3.68996812176414E-19
      3.54616900650083E-19  -1.45173136188528E-17   3.53894830742075E-19  -1.45199995554761E-17   0.00000000000000E+00
      3.04409393578090E-17  -1.06236557710993E-17  -1.40362618419726E-18  -3.43413432218004E-18  -3.68733775844262E-19
     -3.44587639995992E-18  -3.68727804647668E-19  -1.06546683763366E-17  -1.40416174630922E-18   0.00000000000000E+00
      2.14179271835905E-18
      1.00000000000000E+06
     -3.76818110076954E-35  -5.45416097603475E-35   2.78571428571429E-01  -1.06183127745145E-36   8.89417178440360E-13
      1.51593286222365E-17  -8.88831128226865E-13  -6.84253034956128E-20   4.97479418957464E-19  -1.48339854273717E-17
     -6.65709269989421E-18  -3.43010151608445E-19  -8.88831174663760E-13  -6.84251258239215E-20   8.89417178440360E-13
      1.52203279422256E-17  -6.55154845815332E-19  -1.48367107349417E-17  -6.15528816990595E-18  -3.43004823686172E-19
     -1.46008146646957E-19  -1.48341775511675E-17  -1.46782580296424E-19  -1.48369738956968E-17   0.00000000000000E+00
      3.09078988994882E-17  -6.84737133927427E-18  -1.23674745302177E-18  -3.23826440197093E-18  -3.42710091580351E-19
     -3.39715354596873E-18  -3.42705877746039E-19  -8.50727435905698E-18  -1.23734520363057E-18   0.00000000000000E+00
      1.92259310435155E-18
      1.00000000000000E+06
     -3.23816435397033E-32   4.91541037343466E-32   1.85714285714286E-01   7.29320292798894E-35   1.98055921718520E-11
      1.54756012161875E-17  -1.98087149784927E-11  -7.51037643011239E-20  -9.36302572561664E-19  -1.51770596766563E-17
     -1.01291249545053E-17  -3.25302550035288E-19  -1.98087150648998E-11  -7.51058242414849E-20   1.98078175692960E-11
      1.52814711973692E-17  -1.12263021588548E-18  -1.51800810566273E-17  -7.92944688578112E-18  -3.25301143026353E-19
     -4.28904432223468E-19  -1.51772612551728E-17  -4.29690160108528E-19  -1.51799956847650E-17   0.00000000000000E+00
      3.14932190335184E-17  -5.51603891326284E-18  -1.13596209212368E-18  -2.51909956336444E-18  -3.24969907753434E-19
     -2.64897127708689E-18  -3.24966523086894E-19  -5.54386474568821E-18  -1.13662314360251E-18   0.00000000000000E+00
      1.78686156294371E-18
      1.00000000000000E+06
      1.59708650986934E-32   5.05056680465356E-32   9.28571428571429E-02   9.89764223356036E-35   4.31198052978003E-10
      1.59394055958868E-17  -4.31197846076492E-10  -8.27097273437794E-20  -6.56034742344043E-19  -1.55671485782714E-17
     -4.31013025726755E-18  -3.11883699876378E-19  -4.31197846223934E-10  -8.27117477733586E-20   4.31199091496810E-10
      1.58023450225615E-17  -9.22971723997975E-19  -1.55698641793358E-17  -6.43061394984639E-18  -3.11882288301507E-19
     -6.66955431479906E-19  -1.55674996382239E-17  -6.67708939835492E-19  -1.55699953021202E-17   0.00000000000000E+00
      3.21958568441613E-17  -4.63710704028605E-18  -1.05836190430278E-18  -2.44253295665242E-18  -3.11501924578414E-19
     -2.46148031138214E-18  -3.11498648656979E-19  -4.64797159726783E-18  -1.05912387410295E-18   1.48359829598058E-16
      1.68237644032598E-18
      1.00000000000000E+06
     -1.42066254287397E-33  -1.15399888472786E-33   5.42101086242752E-20  -1.68633679794473E-35   9.08001220283251E-09
      1.63352772179713E-17  -9.08000855599187E-09  -9.20834850357266E-20   1.16221492905142E-18  -1.60422006352189E-17
     -5.10453582394493E-18  -3.01567970675949E-19  -9.08000855732095E-09  -9.20815714865403E-20   9.08001294463165E-09
      1.64824596412822E-17   7.75721631097303E-18  -1.60442325004216E-17  -2.53367684612706E-18  -3.01560941000097E-19
     -9.04622639809285E-19  -1.60425199930391E-17  -9.05350018626407E-19  -1.60447679784741E-17   0.00000000000000E+00
      3.30807166166042E-17  -3.97380379212159E-18  -9.93428645905459E-19  -2.30389198506103E-18  -3.01104463175242E-19
     -2.29904914650746E-18  -3.01100717567636E-19  -3.91663497339244E-18  -9.94351437675866E-19   0.00000000000000E+00
      1.59650695696450E-18
      1.00000000000000E+06
      2.02371302865634E-32  -2.37974493618842E-32  -9.28571428571429E-02  -8.51543116256902E-37   1.81190183125315E-07
      1.85741983672259E-17  -1.81190186216483E-07  -1.01153959983076E-19  -6.23454127878756E-19  -1.67016155235887E-17
     -1.77281337307760E-17  -2.94092662087065E-19  -1.81190186221884E-07  -1.02075123919248E-19   1.81190175113884E-07
      1.20247956600237E-17  -4.51485134291541E-19  -1.67156887146157E-17  -9.27402659957652E-17  -2.94263263907832E-19
     -1.20861103842796E-18  -1.67045241912002E-17  -1.20942383188776E-18  -1.67068088567005E-17   0.00000000000000E+00
      3.43477538536642E-17  -3.44729874188181E-18  -9.36420806029098E-19  -2.21663245624708E-18  -2.93533029384677E-19
     -2.25248185353673E-18  -2.93528865365140E-19  -3.45480223645164E-18  -9.37609094796816E-19   1.48359829598058E-16
      1.52466375738852E-18
      1.00000000000000E+06
      2.18314665508319E-37   2.58472088839400E-36  -1.85714285714286E-01  -2.03215664711422E-42   3.19063438155095E-06
      1.71828190443321E-17  -3.19063438420093E-06  -2.62506697565829E-20  -3.30177617528100E-18  -1.79925115803868E-17
     -7.26561217878431E-18  -2.90418000222006E-19  -3.19063438419547E-06  -2.84880037996787E-20   3.19063437947391E-06
      1.60972967999481E-17  -1.22160419183234E-17  -1.79980162474128E-17  -1.58237587260183E-17  -2.90444850878315E-19
     -1.97873219689587E-18  -1.79911228558367E-17  -1.97975481038321E-18  -1.79938033310236E-17   0.00000000000000E+00
      3.68678347706808E-17  -3.00900800541396E-18  -8.82908570063154E-19  -2.23178336728221E-18  -2.89541506464931E-19
     -2.35688212098170E-18  -2.89537845949308E-19  -3.09891315214518E-18  -8.84585727654172E-19   0.00000000000000E+00
      1.46370797105612E-18
      1.00000000000000E+06
      3.57684211935480E-34  -1.04103138254858E-33  -2.78571428571429E-01   3.07121792881757E-40   3.54649949737002E-05
      2.07062013941234E-17  -3.54649949750276E-05   1.14025448020350E-18   4.10434025684253E-18  -2.16321981727599E-17
     -4.11374859753509E-18  -2.94620996093070E-19  -3.54649949750282E-05   1.14230210682709E-18   3.54649949775575E-05
      2.07905739390595E-17  -1.77671514030045E-17  -2.16351277527349E-17  -1.09991773958921E-18  -2.94615097613883E-19
     -5.80106091411427E-18  -2.16333608780288E-17  -5.80221639397787E-18  -2.16365286672238E-17   0.00000000000000E+00
      4.40921272809408E-17  -2.58827008565446E-18  -8.22237736122466E-19  -2.33412447374088E-18  -2.93225953018825E-19
     -2.06720455018825E-18  -2.93223457473988E-19  -2.65572861244260E-18  -8.25023159033266E-19   0.00000000000000E+00
      1.41058318886317E-18
      1.00000000000000E+06
      8.91915268460715E-36   2.93309750864926E-35  -3.71428571428571E-01  -5.44447232584933E-41   1.42690902222065E-04
      2.30602309741138E-17  -1.42690902227065E-04   4.31360385485550E-18  -3.84411477576818E-17  -2.69369552829871E-17
     -9.43117912419577E-18  -3.13332145001605E-19  -1.42690902226953E-04   4.30454660808315E-18   1.42690902228741E-04
      2.29810528443003E-17  -1.25012519944339E-18  -2.69413755824936E-17  -3.14998014410485E-18  -3.13334438128132E-19
     -1.16526034838826E-17  -2.69402631234629E-17  -1.16545536756055E-17  -2.69442856456200E-17   0.00000000000000E+00
      5.46258001991370E-17  -2.11804816108216E-18  -7.41251447305102E-19  -3.30598511196021E-17  -3.10567806932919E-19
     -3.66375265074561E-17  -3.10566441275678E-19  -3.25170324968866E-18  -7.46785495652537E-19   0.00000000000000E+00
      1.36970953060475E-18
      1.00000000000000E+06
      3.39526972324257E-33   2.16287913015946E-33  -4.64285714285714E-01   6.97196299532036E-38   2.81042435415691E-04
      2.46085387349031E-17  -2.81042435422129E-04   7.33192790273737E-18  -2.80820018607995E-17  -3.03892688067784E-17
      8.22451649783605E-18  -3.42302498731314E-19  -2.81042435421915E-04   6.99004505837320E-18   2.81042435421626E-04
      2.30306358142863E-17  -2.45454035078343E-17  -3.04035241570991E-17  -7.00688948154791E-18  -3.42374805414401E-19
     -1.40062071946168E-17  -3.04004123115028E-17  -1.40090678781615E-17  -3.04052978909605E-17   1.48359829598058E-16
      6.14550795328680E-17  -1.65720484360247E-18  -6.49369414146410E-19  -9.79324374800927E-17  -3.37030411858071E-19
     -9.32003159835854E-17  -3.37031604698671E-19  -2.08751667792630E-18  -6.59995132514828E-19   1.48359829598058E-16
      1.33698273269284E-18
      1.00000000000000E+06
     -3.35195963922621E-36   7.41117078666495E-36  -5.57142857142857E-01   4.95763613070693E-40   4.13807411694189E-04
      2.39737868288576E-17  -4.13807411692840E-04   9.21687116124560E-18  -4.83911418011158E-17  -3.25523407729971E-17
      1.61954824578907E-18  -3.74720552010978E-19  -4.13807411693273E-04   9.52112539697142E-18   4.13807411694189E-04
      2.49341709749871E-17  -2.09643324508382E-17  -3.25515755873188E-17  -4.76636311063310E-18  -3.74685677674057E-19
     -1.48321136980191E-17  -3.25615322487031E-17  -1.48354549728151E-17  -3.25669576270764E-17   0.00000000000000E+00
      6.56886646925984E-17  -1.25817361819105E-18  -5.60174878834545E-19   8.38568094100556E-17  -3.66802429298425E-19
      1.02102582595959E-16  -3.66806902073286E-19   3.28652509881514E-19  -5.76035001801298E-19   0.00000000000000E+00
      1.30793363067088E-18
      1.00000000000000E+06
      1.39377378252534E-37   3.53334700691274E-37  -6.50000000000000E-01  -1.17654592403704E-40   5.34082778442730E-04
      2.53443577551130E-17  -5.34082778422345E-04   1.13138690930791E-17  -7.64146459600700E-17  -3.40246578443309E-17
     -9.17164098777076E-17  -4.02237342459095E-19  -5.34082778418241E-04   1.24906777127652E-17   5.34082778430564E-04
      2.81987833546380E-17  -5.08767033773389E-17  -3.40113654490834E-17  -1.13777155992820E-17  -4.02118718417887E-19
     -1.51328087634604E-17  -3.40440005176049E-17  -1.51363096721092E-17  -3.40496842253163E-17   0.00000000000000E+00
      6.85809735320531E-17  -9.61525999113925E-19  -4.87288177283755E-19   1.03445235349087E-16  -3.93386131814337E-19
      1.13306210244264E-16  -3.93392211979778E-19  -3.19142967487491E-18  -5.05139310794134E-19   0.00000000000000E+00
      1.28780296052595E-18
}
