DF-ISE text

Info {
  version   = 1.0
  type      = xyplot
  datasets  = [
    "frequency"
    "v(d)" "v(s)" "v(g)" "v(b)" "a(d,d)"
    "c(d,d)" "a(d,s)" "c(d,s)" "a(d,g)" "c(d,g)"
    "a(d,b)" "c(d,b)" "a(s,d)" "c(s,d)" "a(s,s)"
    "c(s,s)" "a(s,g)" "c(s,g)" "a(s,b)" "c(s,b)"
    "a(g,d)" "c(g,d)" "a(g,s)" "c(g,s)" "a(g,g)"
    "c(g,g)" "a(g,b)" "c(g,b)" "a(b,d)" "c(b,d)"
    "a(b,s)" "c(b,s)" "a(b,g)" "c(b,g)" "a(b,b)"
    "c(b,b)" ]
  functions = [
    Frequency
    Voltage Voltage Voltage Voltage Admittance
    Capacitance Admittance Capacitance Admittance Capacitance
    Admittance Capacitance Admittance Capacitance Admittance
    Capacitance Admittance Capacitance Admittance Capacitance
    Admittance Capacitance Admittance Capacitance Admittance
    Capacitance Admittance Capacitance Admittance Capacitance
    Admittance Capacitance Admittance Capacitance Admittance
    Capacitance ]
}

Data {
      1.00000000000000E+06
      4.47388596004847E-46   3.52989184062546E-46  -6.50000000000000E-01  -2.19300561179713E-48   0.00000000000000E+00
      1.36897226869623E-17  -1.48501736513602E-15  -2.01120567795092E-19  -7.74178681717754E-19  -1.32770248541879E-17
      3.08106771226745E-19  -2.63975617972504E-19  -1.48267450347771E-15  -2.01123255989553E-19   0.00000000000000E+00
      1.35203347932019E-17  -6.42172690855568E-19  -1.32770578650883E-17  -3.38147085225994E-18  -2.63949131618667E-19
     -7.83023139304363E-19  -1.32770392434491E-17  -7.83191662808721E-19  -1.32769382238292E-17   1.48359829598058E-16
      2.73711890922177E-17  -3.19166288622726E-18  -8.17211625132821E-19  -1.10149961261487E-18  -2.63916906037521E-19
     -1.07676376090666E-18  -2.63887911427312E-19  -3.14354971892618E-18  -8.17326823928143E-19   1.48359829598058E-16
      1.34470690041127E-18
      1.00000000000000E+06
     -1.10824105194907E-34   3.94861797198718E-34  -5.57142857142857E-01  -8.60353133091433E-37   1.78031795517670E-14
      1.40955105128298E-17  -2.36431643085290E-14  -2.12289125268587E-19  -9.94552884714279E-19  -1.34788317646814E-17
      9.07155448630857E-19  -2.53782729684133E-19  -2.36429994510444E-14  -2.12294715602070E-19   1.92867778477476E-14
      1.38093105780747E-17  -9.00527479806588E-19  -1.34789708746462E-17   9.84795951308364E-19  -2.53761580556885E-19
     -9.09880366408975E-19  -1.34790154716254E-17  -9.10048084132604E-19  -1.34789195116139E-17   0.00000000000000E+00
      2.77285690662293E-17  -2.76325914959425E-18  -7.70634083001499E-19  -9.60309896607816E-19  -2.53726215670446E-19
     -9.20149121549951E-19  -2.53698326807075E-19  -2.72695864202808E-18  -7.70755635235436E-19   0.00000000000000E+00
      1.27815279671245E-18
      1.00000000000000E+06
      3.45296779204296E-32   8.38676681327689E-33  -4.64285714285714E-01  -7.08802114028526E-35   3.66003699618410E-13
      1.45313544139619E-17  -3.68899865442686E-13  -2.24187402296707E-19  -8.76732546820109E-19  -1.36882887588234E-17
     -4.90730153101721E-18  -2.45354441952667E-19  -3.68899955064276E-13  -2.24199073865927E-19   3.68377456891979E-13
      1.40144603783103E-17  -9.80144723173443E-19  -1.36886550089774E-17   1.72027297689810E-19  -2.45343321758169E-19
     -1.02433370647338E-18  -1.36886813184071E-17  -1.02450484410592E-18  -1.36885903280360E-17   0.00000000000000E+00
      2.81079859760913E-17  -2.42457337701259E-18  -7.30714330544517E-19  -8.65186882444154E-19  -2.45300971465695E-19
     -8.54277456363268E-19  -2.45274088903914E-19  -2.42499931443642E-18  -7.30847061893797E-19   0.00000000000000E+00
      1.22146388366055E-18
      1.00000000000000E+06
     -3.44612737397662E-36   3.74421286017808E-36  -3.71428571428571E-01  -2.06622634597091E-38   5.62402442040320E-12
      1.43041440437205E-17  -5.62622509612929E-12  -2.37208734929625E-19  -4.17355080619939E-19  -1.39100891233133E-17
      1.00314503699626E-18  -2.38386886255637E-19  -5.62622730709871E-12  -2.37190482108405E-19   5.62150230330003E-12
      1.50623669844664E-17  -3.16094576232263E-19  -1.39093096336597E-17   8.22690042620519E-19  -2.38344926675774E-19
     -1.13211113821323E-18  -1.39100929763669E-17  -1.13227430166034E-18  -1.39100064941520E-17   0.00000000000000E+00
      2.85158760008481E-17  -2.14957185639033E-18  -6.95776467769329E-19  -7.83948872637101E-19  -2.38309072974900E-19
     -7.96856845508838E-19  -2.38283100886966E-19  -2.14529299247625E-18  -6.95926594760445E-19   0.00000000000000E+00
      1.17252987778056E-18
      1.00000000000000E+06
      5.43515654389015E-32  -2.09979631089657E-32  -2.78571428571429E-01  -6.31826517215182E-35   8.35724272510527E-11
      1.47046088175183E-17  -8.35704514399008E-11  -2.51990572376838E-19  -1.50537710422704E-18  -1.41502722731931E-17
      1.61794676463548E-18  -2.32524681932270E-19  -8.35704516778724E-11  -2.51992955071394E-19   8.35721305313935E-11
      1.46111939623724E-17  -1.10844957431441E-18  -1.41502720199065E-17   6.40824481039622E-19  -2.32502030090741E-19
     -1.23901737065007E-18  -1.41504198652351E-17  -1.23919125420145E-18  -1.41503373669047E-17   0.00000000000000E+00
      2.89651764343105E-17  -1.91932639500062E-18  -6.64419202358151E-19  -7.06040104413248E-19  -2.32438896311459E-19
     -7.14148821473375E-19  -2.32413738116821E-19  -1.91533626360021E-18  -6.64595082454742E-19   0.00000000000000E+00
      1.12944585799613E-18
      1.00000000000000E+06
     -3.63304711574452E-33   1.69179235969997E-33  -1.85714285714286E-01   1.35308981422534E-36   1.20222260380082E-09
      1.49512131297784E-17  -1.20222257140475E-09  -2.69688414974245E-19  -1.60118073416884E-18  -1.44210869226809E-17
     -2.55894497850128E-18  -2.27549577455331E-19  -1.20222257156899E-09  -2.69685010527836E-19   1.20222067512303E-09
      1.50581690136591E-17  -1.35572425825758E-18  -1.44208942965212E-17   7.64686083015997E-19  -2.27523127177758E-19
     -1.35211841345041E-18  -1.44212237849769E-17  -1.35229419519680E-18  -1.44211447130405E-17   0.00000000000000E+00
      2.94778407733060E-17  -1.71906047238157E-18  -6.35472276522683E-19  -6.18620498260244E-18  -2.27441935531504E-19
     -2.79790183991078E-18  -2.27417354164566E-19  -7.54983021402550E-18  -6.35682141781943E-19   0.00000000000000E+00
      1.09408893242298E-18
      1.00000000000000E+06
     -7.51457484966778E-33  -7.33482655263156E-33  -9.28571428571429E-02   3.33152551410209E-38   1.65952719476558E-08
      1.53138114158969E-17  -1.65952732057770E-08  -2.92278855605963E-19  -1.79754679061135E-18  -1.47420946280703E-17
      4.70508310969859E-18  -2.23439337456736E-19  -1.65952732059993E-08  -2.92279822953340E-19   1.65952737279738E-08
      1.52848280577300E-17  -1.59956156179007E-18  -1.47420397041973E-17   7.38492906883124E-19  -2.23416227295056E-19
     -1.48073146350778E-18  -1.47422821597631E-17  -1.48091083469232E-18  -1.47422062003384E-17   0.00000000000000E+00
      3.00928134828042E-17  -1.54215563698391E-18  -6.08325122845024E-19  -3.46860926963453E-18  -2.23305081030754E-19
     -3.60596051881030E-18  -2.23281082250335E-19  -1.00062958441580E-17  -6.08597668834153E-19   0.00000000000000E+00
      1.05486660438037E-18
      1.00000000000000E+06
      5.24343156063871E-33   1.64387054043205E-33  -5.42101086242752E-20  -7.03707153674912E-39   2.15982369446985E-07
      1.53972578192748E-17  -2.15982369566191E-07  -3.22369308040402E-19  -2.06552422225441E-18  -1.51552684719306E-17
     -5.61833704134562E-19  -2.20451571394497E-19  -2.15982369566561E-07  -3.22316158697161E-19   2.15982369001905E-07
      1.56695187888693E-17  -1.61364573581902E-18  -1.51549105873889E-17  -6.18392777947930E-19  -2.20417631814926E-19
     -1.64404975597324E-18  -1.51551275287269E-17  -1.64423486551030E-18  -1.51550545464160E-17   0.00000000000000E+00
      3.08929225247959E-17  -1.38770367756346E-18  -5.82740449111737E-19  -1.18991635847028E-18  -2.20259459255796E-19
     -1.32854539239676E-18  -2.20235734993562E-19  -3.83457207022922E-18  -5.83102732332595E-19   0.00000000000000E+00
      1.02357571333550E-18
      1.00000000000000E+06
      2.09618945056942E-36  -6.87747694891748E-36   9.28571428571429E-02   1.11706007124250E-42   2.53763185133727E-06
      1.63054674569734E-17  -2.53763185192205E-06  -3.42193578100696E-19  -2.09987120252251E-18  -1.57769809117463E-17
     -5.30729545276743E-19  -2.18997037784370E-19  -2.53763185192229E-06  -3.41874621219313E-19   2.53763185267251E-06
      1.64712145575468E-17  -2.18859954987524E-18  -1.57766492148811E-17  -1.21273845127720E-18  -2.18967460945363E-19
     -1.90836829998880E-18  -1.57771880934959E-17  -1.90856260401101E-18  -1.57771174135743E-17   0.00000000000000E+00
      3.21123904947279E-17  -1.25377620760355E-18  -5.58084986473914E-19  -6.42119253656742E-19  -2.18740608419403E-19
     -4.70883547907861E-19  -2.18716935662085E-19  -2.70036712258254E-18  -5.58594644924482E-19   0.00000000000000E+00
      9.96216972552733E-19
      1.00000000000000E+06
      1.17581404756938E-34  -1.86593322623906E-35   1.85714285714286E-01  -4.68202299924361E-40   2.33266328811112E-05
      1.84635794096677E-17  -2.33266328836345E-05  -6.65403045513640E-20  -6.53537435028012E-19  -1.69776842767738E-17
      7.97659523075230E-19  -2.20012363579383E-19  -2.33266328836386E-05  -6.97503706395701E-20   2.33266328818530E-05
      1.82741347154933E-17  -2.36424319298991E-18  -1.69779212921734E-17   1.40689415774462E-18  -2.20001362181516E-19
     -2.55758953040701E-18  -1.69804402717716E-17  -2.55779774140193E-18  -1.69803659198692E-17   0.00000000000000E+00
      3.44929527754024E-17  -1.13093842817847E-18  -5.32146579499694E-19   1.79547698629264E-17  -2.19670733114303E-19
      1.19726808789729E-17  -2.19646625616574E-19  -1.37204445347804E-18  -5.32920434606677E-19   0.00000000000000E+00
      9.72929400392270E-19
      1.00000000000000E+06
     -6.23471900703209E-35  -1.47667058874031E-34   2.78571428571429E-01   1.57815992847920E-41   1.17615753238494E-04
      1.92667529237744E-17  -1.17615753236980E-04   1.53610864656167E-18   2.45801800117862E-18  -1.91437552551253E-17
      9.44554818521902E-19  -2.25808321135382E-19  -1.17615753237037E-04   1.71128372898771E-18   1.17615753233598E-04
      2.11818056521081E-17   3.99176522882002E-17  -1.91384029332887E-17  -4.52749084162943E-18  -2.25726912169662E-19
     -4.02796012228691E-18  -1.91483982434704E-17  -4.02817279526757E-18  -1.91482928535672E-17   0.00000000000000E+00
      3.87966294037614E-17  -9.99736309598576E-19  -4.99938315648468E-19   5.01864348038518E-18  -2.25205299459729E-19
     -1.97617351332547E-18  -2.25178761160829E-19  -3.84352457886330E-19  -5.01246908180691E-19   0.00000000000000E+00
      9.52940651418334E-19
      1.00000000000000E+06
      5.80149765051225E-35  -2.40457810432710E-35   3.71428571428571E-01  -4.83154070930977E-42   2.82353434268280E-04
      5.96385669707261E-18  -2.82353434260829E-04   1.16679854718139E-18   4.78148273772368E-17  -2.12637912849461E-17
      4.90372718561614E-18  -2.39148289257538E-19  -2.82353434259853E-04  -1.42857449414199E-18   2.82353434325398E-04
     -5.15994967632584E-18  -6.87734526023990E-18  -2.13076369580923E-17  -3.18160143890395E-18  -2.39463097005454E-19
     -5.40158261040516E-18  -2.12143504478517E-17  -5.40176449648642E-18  -2.12141693776495E-17   0.00000000000000E+00
      4.28855101662631E-17  -8.46054513773274E-19  -4.56990705987487E-19   1.71457001018286E-17  -2.37484311680992E-19
      6.26809941880729E-18  -2.37452365943842E-19   2.87637975033907E-19  -4.59365322892199E-19   0.00000000000000E+00
      9.33013944215929E-19
      1.00000000000000E+06
     -8.91033434432841E-36   1.29131152140970E-35   4.64285714285714E-01   8.57008978456951E-43   4.43578878940731E-04
     -5.80836409332307E-17  -4.43578878615412E-04  -2.23782432439513E-17  -1.08576281573609E-15  -2.28977521444647E-17
     -2.20107685829250E-17  -2.61242506041594E-19  -4.43578878692742E-04   4.13605232143950E-18   4.43578878728724E-04
      1.31097378066059E-17   2.75472261005083E-17  -2.25617224165487E-17   5.65486526010761E-18  -2.58300580598266E-19
     -6.14437197400869E-18  -2.25455941061302E-17  -6.14449759943202E-18  -2.25452955197905E-17   1.48359829598058E-16
      4.54953110791050E-17  -6.74324038317695E-19  -4.04420300644135E-19  -1.24292322666265E-15  -2.56302006799144E-19
     -1.25232140136568E-15  -2.56263660334217E-19  -8.45995205209480E-18  -4.08178982511156E-19   0.00000000000000E+00
      9.18584694864571E-19
      1.00000000000000E+06
     -9.63665191311879E-35  -8.08316020492843E-35   5.57142857142857E-01   2.46060100005761E-41   5.78206538424427E-04
      1.57807264197531E-17  -5.78206538401451E-04   6.43817594601146E-18  -2.12700160350146E-17  -2.34096335790948E-17
     -9.95762299695923E-19  -2.78380659205133E-19  -5.78206538413829E-04   1.22365420999715E-17   5.78206538398909E-04
      2.72316873744715E-17  -2.80322281062961E-17  -2.33574627015419E-17  -4.67296293976992E-18  -2.77902096909100E-19
     -6.54329727769176E-18  -2.34073342708194E-17  -6.54335909715829E-18  -2.34069294269944E-17   0.00000000000000E+00
      4.71676940715411E-17  -5.18200553750696E-19  -3.53431395839658E-19   1.28337956309412E-15  -2.76147496436518E-19
      1.27932953782994E-15  -2.76103255534336E-19   6.96570377551136E-18  -3.57831615526803E-19   0.00000000000000E+00
      9.09057975300386E-19
      1.00000000000000E+06
      6.16297517434604E-34  -6.06626202095533E-34   6.50000000000000E-01   3.57848208578945E-37   6.89072802910567E-04
      2.45491596873752E-18  -6.89072802865342E-04  -6.59408233979204E-19  -3.96755090228200E-17  -2.40629809881032E-17
     -5.35722782647653E-19  -2.93488812654847E-19  -6.89072802884429E-04   1.21138054063413E-17   6.89072802876296E-04
      2.35702789824218E-17  -2.33166088549867E-17  -2.39604780316365E-17  -6.17604414614638E-19  -2.92571442831543E-19
     -6.75095456924835E-18  -2.39981774837101E-17  -6.75095922340506E-18  -2.39976818976245E-17   0.00000000000000E+00
      4.83105363210019E-17  -4.06398753138369E-19  -3.14672955103606E-19  -7.32159875187509E-16  -2.90916746263304E-19
     -7.39628736054822E-16  -2.90867791832151E-19  -4.55323590956974E-18  -3.18779512674442E-19   0.00000000000000E+00
      9.01557441013442E-19
}
