DF-ISE text

Info {
  version   = 1.0
  type      = xyplot
  datasets  = [
    "frequency"
    "v(d)" "v(s)" "v(g)" "v(b)" "a(d,d)"
    "c(d,d)" "a(d,s)" "c(d,s)" "a(d,g)" "c(d,g)"
    "a(d,b)" "c(d,b)" "a(s,d)" "c(s,d)" "a(s,s)"
    "c(s,s)" "a(s,g)" "c(s,g)" "a(s,b)" "c(s,b)"
    "a(g,d)" "c(g,d)" "a(g,s)" "c(g,s)" "a(g,g)"
    "c(g,g)" "a(g,b)" "c(g,b)" "a(b,d)" "c(b,d)"
    "a(b,s)" "c(b,s)" "a(b,g)" "c(b,g)" "a(b,b)"
    "c(b,b)" ]
  functions = [
    Frequency
    Voltage Voltage Voltage Voltage Admittance
    Capacitance Admittance Capacitance Admittance Capacitance
    Admittance Capacitance Admittance Capacitance Admittance
    Capacitance Admittance Capacitance Admittance Capacitance
    Admittance Capacitance Admittance Capacitance Admittance
    Capacitance Admittance Capacitance Admittance Capacitance
    Admittance Capacitance Admittance Capacitance Admittance
    Capacitance ]
}

Data {
      1.00000000000000E+06
      3.41837823743877E-46  -8.30228508892805E-47  -6.50000000000000E-01   1.50898567823345E-48   0.00000000000000E+00
      1.37527935427073E-17  -4.81497804663732E-18  -4.54189175103170E-20  -4.51301767008481E-19  -1.33694582449755E-17
      1.23449245305458E-18  -2.83748277347954E-19  -4.73810756125017E-18  -4.54194767334155E-20   0.00000000000000E+00
      1.36057374284944E-17  -4.78804345139214E-19  -1.33720574174679E-17   3.65999182836285E-18  -2.83735525462840E-19
     -5.93234270382029E-19  -1.33695626729477E-17  -5.94052174953050E-19  -1.33720287561012E-17   0.00000000000000E+00
      2.79159468154996E-17  -4.88283744280233E-18  -1.17435538628213E-18  -1.34921240196797E-18  -2.83689691048041E-19
     -1.51342202710743E-18  -2.83674654724736E-19  -6.15511635677957E-18  -1.17447479828927E-18   0.00000000000000E+00
      1.74162004437939E-18
      1.00000000000000E+06
      5.69483219608662E-34   3.54194868634711E-34  -5.57142857142857E-01   2.29396328829914E-36   0.00000000000000E+00
      1.41567829987875E-17  -1.18051613023979E-16  -4.92577576898977E-20  -9.94086130256899E-19  -1.35839449783545E-17
      3.70723767840593E-18  -2.67871353130382E-19  -1.17814281907588E-16  -4.92588653582911E-20   0.00000000000000E+00
      1.39042088114137E-17  -9.63309795456522E-19  -1.35868496264111E-17   6.91260289051174E-18  -2.67862394629861E-19
     -7.82261801511000E-19  -1.35842220321369E-17  -7.83154737371232E-19  -1.35869123868478E-17   0.00000000000000E+00
      2.82475058239811E-17  -3.88024047073147E-18  -1.07637140496631E-18  -1.08467416198224E-18  -2.67813287007415E-19
     -1.04677928867200E-18  -2.67800301196451E-19  -4.21122511220147E-18  -1.07649784499788E-18   0.00000000000000E+00
      1.61133401671604E-18
      1.00000000000000E+06
      1.47804239751468E-32   2.92305313897783E-32  -4.64285714285714E-01  -1.37933699456098E-35   0.00000000000000E+00
      1.46227589437790E-17  -2.85325799003105E-15  -5.30897974207113E-20  -1.30520157018680E-18  -1.38047426442972E-17
     -1.29810597506185E-18  -2.55838692545505E-19  -2.85313409409676E-15  -5.30919837384202E-20   0.00000000000000E+00
      1.41878272162499E-17  -9.53091795046187E-19  -1.38080467390374E-17   1.82169523801271E-18  -2.55834676060002E-19
     -9.27518953749371E-19  -1.38052631092589E-17  -9.28499639494139E-19  -1.38081814393080E-17   0.00000000000000E+00
      2.86182465355611E-17  -3.26114017221353E-18  -1.00480198705955E-18  -9.01343173523668E-19  -2.55780158985973E-19
     -8.49329227844730E-19  -2.55768699867468E-19  -3.26889495114478E-18  -1.00493627774705E-18   0.00000000000000E+00
      1.51657975321975E-18
      1.00000000000000E+06
     -1.09301831492733E-35  -1.10447446950947E-35  -3.71428571428571E-01  -1.11025951150902E-37   6.23111284311845E-14
      1.43097834857685E-17  -6.81465072957176E-14  -5.70664908323537E-20  -9.37431557889283E-19  -1.40373142070514E-17
     -3.13450012262325E-18  -2.46249620964825E-19  -6.81467617193795E-14  -5.70662448217445E-20   6.20144087719884E-14
      1.43811044817874E-17  -1.05992752715440E-18  -1.40403463945282E-17   6.22159205115524E-19  -2.46238299759240E-19
     -1.05415632052330E-18  -1.40373608044294E-17  -1.05521570738613E-18  -1.40404604779206E-17   1.48359829598058E-16
      2.90246558378695E-17  -2.80765859965144E-18  -9.46834555180956E-19  -7.84076109583569E-19  -2.46174272043159E-19
     -7.98761111018182E-19  -2.46164409671294E-19  -2.81678879306523E-18  -9.46984285983346E-19   0.00000000000000E+00
      1.43922452643672E-18
      1.00000000000000E+06
     -2.65619841801358E-32   3.14081081982337E-32  -2.78571428571429E-01  -1.40286850477825E-34   1.60317631863662E-12
      1.31254106590077E-17  -1.60605136943410E-12  -6.13473054655092E-20  -5.39535301400984E-19  -1.42892717997895E-17
     -2.14083135925530E-17  -2.38510986005536E-19  -1.60605133902630E-12  -6.13418081463072E-20   1.61801230159643E-12
      1.40600934077562E-17   4.60949062009177E-19  -1.42915955330618E-17  -1.50891725658461E-17  -2.38483245208830E-19
     -1.17280192631379E-18  -1.42879414601168E-17  -1.17390247986749E-18  -1.42910813354421E-17   1.48359829598058E-16
      2.94767750036218E-17  -2.45555360526594E-18  -8.97752207779093E-19  -7.14155664377797E-19  -2.38394295106176E-19
     -7.45929103984746E-19  -2.38385718350264E-19  -2.46810372929183E-18  -8.97925479454437E-19   0.00000000000000E+00
      1.37459055402153E-18
      1.00000000000000E+06
      3.39394016061875E-34   2.82706893742007E-33  -1.85714285714286E-01  -4.87251807536488E-36   3.72001887529060E-11
      1.49995416992973E-17  -3.71994070705484E-11  -6.61619311689583E-20  -1.30800490097280E-18  -1.45687337592850E-17
      1.43379027653271E-18  -2.32086155050144E-19  -3.71994075289235E-11  -6.61646038781351E-20   3.71998920332468E-11
      1.46715287082894E-17  -1.12918359453494E-18  -1.45720688967645E-17   1.02623698027264E-18  -2.32085355005910E-19
     -1.29288872343532E-18  -1.45689714470803E-17  -1.29396944135810E-18  -1.45719338444405E-17   1.48359829598058E-16
      2.99954461076932E-17  -2.16818282743102E-18  -8.54540816036355E-19  -5.43339354781380E-19  -2.31984347313678E-19
     -6.27076587744453E-19  -2.31976482794850E-19  -2.16621021232556E-18  -8.54749227655171E-19   0.00000000000000E+00
      1.31902408077937E-18
      1.00000000000000E+06
     -9.50307045077194E-33  -2.74680552289528E-32  -9.28571428571429E-02   8.89719183525386E-36   8.41897228300443E-10
      1.49177048495120E-17  -8.41897206085185E-10  -7.19760199098002E-20  -1.56823895236736E-18  -1.49007011974513E-17
     -2.56416801867497E-19  -2.26801139346795E-19  -8.41897206083276E-10  -7.19749425530518E-20   8.41897970099591E-10
      1.51235712464109E-17  -1.51852077341127E-18  -1.49031655720528E-17  -2.65303752714584E-19  -2.26788843378446E-19
     -1.42554128320112E-18  -1.49005478632207E-17  -1.42656088621588E-18  -1.49031961630212E-17   0.00000000000000E+00
      3.06188489600672E-17  -1.92238294656225E-18  -8.15104933748694E-19  -9.82591052316276E-18  -2.26657990416179E-19
     -2.41299301525037E-17  -2.26648929576770E-19  -4.50034388845758E-17  -8.15347239394915E-19  -1.70613804037767E-14
      1.28057611592112E-18
      1.00000000000000E+06
     -3.08614842006234E-32  -9.98893767149719E-33  -5.42101086242752E-20  -1.97184723722661E-37   1.84304499555418E-08
      1.56237781973421E-17  -1.84304486302967E-08  -7.94041000779924E-20  -1.67934725159925E-18  -1.53228791490917E-17
     -5.47309929471402E-19  -2.22710392342686E-19  -1.84304486303700E-08  -7.94099737974023E-20   1.84304486203033E-08
      1.54097584314570E-17  -1.75717598040841E-18  -1.53257131757607E-17   1.35210527901286E-18  -2.22707486709039E-19
     -1.58879602392819E-18  -1.53230523404234E-17  -1.58982570232591E-18  -1.53255696528081E-17   0.00000000000000E+00
      3.14272051102286E-17  -1.71001466066577E-18  -7.78583116988047E-19  -5.24931229722685E-18  -2.22535268212214E-19
     -5.91683700860812E-18  -2.22527151374601E-19  -1.99544218254540E-17  -7.78932773996349E-19   1.48359829598058E-16
      1.22409522724139E-18
      1.00000000000000E+06
     -4.29120784480361E-37  -1.45130524726115E-36   9.28571428571429E-02  -6.16582683425393E-42   3.81307031915952E-07
      1.62257270833614E-17  -3.81307033255740E-07  -8.39532339690061E-20  -1.84856876435734E-18  -1.59510223809855E-17
     -1.57871694415057E-18  -2.20325918637083E-19  -3.81307033256757E-07  -8.41857592980912E-20   3.81307031470872E-07
      1.54330542728592E-17  -4.26650204637517E-18  -1.59553581082033E-17   6.46817180189305E-19  -2.20339700666391E-19
     -1.84023391820029E-18  -1.59512220099759E-17  -1.84147480372890E-18  -1.59540963399849E-17   0.00000000000000E+00
      3.26497650741021E-17  -1.52963868694093E-18  -7.44446724538116E-19  -3.47976926562237E-18  -2.20078618384727E-19
     -3.96580526618419E-18  -2.20070436691698E-19  -1.25781493966193E-17  -7.44938699306191E-19   0.00000000000000E+00
      1.18534969284728E-18
      1.00000000000000E+06
      3.59600618797181E-35  -1.84292655792170E-34   1.85714285714286E-01  -6.58526697719844E-41   6.82079515193072E-06
      1.79810289460653E-17  -6.82079515115765E-06   5.65633510541722E-20  -4.34143114887447E-18  -1.72895315619091E-17
     -3.31397457189495E-19  -2.20760658979348E-19  -6.82079515117413E-06   5.51541532272252E-20   6.82079514792501E-06
      1.77082510368069E-17  -2.12054106728856E-18  -1.72935771107271E-17  -1.29131534621212E-18  -2.20761816249218E-19
     -2.55184272437093E-18  -1.72910495779147E-17  -2.55344284738701E-18  -1.72945619797560E-17   0.00000000000000E+00
      3.52958724126736E-17  -1.37176665126688E-18  -7.10260865640221E-19   1.91353025293725E-17  -2.20400806838630E-19
      1.78101960380404E-17  -2.20393284027103E-19  -1.18444097421636E-18  -7.11012683031918E-19   0.00000000000000E+00
      1.15275042327666E-18
      1.00000000000000E+06
     -3.45557112854456E-33  -8.06663291838336E-34   2.78571428571429E-01  -1.61369419577902E-39   6.91611183686330E-05
      1.63681308938689E-17  -6.91611183625632E-05   1.51095301173866E-18  -1.86154185464466E-16  -2.10484766553481E-17
     -4.99950963588593E-18  -2.28290754798719E-19  -6.91611183627719E-05   1.66114349092625E-18   6.91611183656658E-05
      1.92323727362209E-17   1.77200772868105E-16  -2.10419677991707E-17  -3.75767385422999E-18  -2.28175354786146E-19
     -5.63820127051759E-18  -2.10372438448918E-17  -5.64015482727034E-18  -2.10412417369399E-17   0.00000000000000E+00
      4.27454338629758E-17  -1.20169663605231E-18  -6.66948240904163E-19   4.06776600857215E-17  -2.27502580833540E-19
      6.22932646829331E-17  -2.27495059256606E-19  -5.15315180357399E-19  -6.68283163017283E-19   0.00000000000000E+00
      1.12236824348333E-18
      1.00000000000000E+06
      3.76313723644833E-34  -3.32646428186164E-34   3.71428571428571E-01   2.67295746935884E-39   2.33574303081253E-04
     -8.08920028180959E-17  -2.33574303014979E-04  -1.40633972318556E-17   3.81277534739836E-16  -2.61246247048069E-17
      4.78098627156670E-17  -2.53191564884033E-19  -2.33574302955024E-04  -3.02450442471128E-18   2.33574303064785E-04
     -2.32826966675742E-17   7.10100462099036E-16  -2.58219825702005E-17   1.20561879429986E-17  -2.50866004198150E-19
     -9.46788610318751E-18  -2.55614011978643E-17  -9.47042482972560E-18  -2.55658941622535E-17   0.00000000000000E+00
      5.17294391047225E-17  -9.80814566194008E-19  -6.02143343290652E-19  -7.92081920857058E-17  -2.47348533783524E-19
     -2.98123078922628E-17  -2.47338709247247E-19  -3.58838315286166E-18  -6.04903047022289E-19   0.00000000000000E+00
      1.10111283611528E-18
      1.00000000000000E+06
      8.94721826526316E-33  -1.45516208885544E-32   4.64285714285714E-01   4.86914313832169E-37   4.07983011767050E-04
      1.49737121999633E-17  -4.07983011760922E-04   5.96433837003687E-18   8.41105826258503E-17  -2.81795688347563E-17
     -2.16014571507682E-18  -2.81373443992459E-19  -4.07983011759625E-04   9.11804780862657E-18   4.07983011778622E-04
      2.40507598401234E-17   5.24881868634758E-17  -2.81277710843800E-17   6.84408363275797E-18  -2.80903639459638E-19
     -1.10608958260640E-17  -2.81480038290271E-17  -1.10637212704974E-17  -2.81527005243416E-17   1.48359829598058E-16
      5.68204255204939E-17  -7.28267272694982E-19  -5.19719218315259E-19  -9.11213093029473E-16  -2.78626394089463E-19
     -5.95553264959827E-16  -2.78614993929609E-19  -7.55592352076297E-18  -5.24659790129602E-19   0.00000000000000E+00
      1.08449310031043E-18
      1.00000000000000E+06
     -5.72299537224305E-35   1.07548668671680E-34   5.57142857142857E-01   9.77677633656355E-40   5.54406006579464E-04
      1.84225376720108E-17  -5.54406006574835E-04   8.71493431650256E-18   3.41252731281420E-17  -2.96419375137453E-17
     -2.57679667339559E-18  -3.12988854488030E-19  -5.54406006570630E-04   1.71141591658050E-17   5.54406006573975E-04
      3.57197708508164E-17   3.36419523400759E-17  -2.95386553613483E-17   8.98719823723782E-18  -3.12158132993862E-19
     -1.16991664628856E-17  -2.96334622935289E-17  -1.17019401935340E-17  -2.96380847986642E-17   0.00000000000000E+00
      5.97144777823501E-17  -5.11454033538125E-19  -4.42927961991724E-19   2.71508323660179E-15  -3.09956749747572E-19
      2.79365417503109E-15  -3.09943618593148E-19   3.12163640350645E-17  -4.48819458595121E-19   0.00000000000000E+00
      1.06821398745525E-18
      1.00000000000000E+06
     -7.04230940070598E-35  -6.69041349135008E-35   6.50000000000000E-01  -6.64779977829553E-39   6.74892994848826E-04
      2.74656009119021E-17  -6.74892994868107E-04   1.51070483422386E-17  -5.68570876886690E-16  -3.05333842298841E-17
     -2.76363426916303E-18  -3.33760856240170E-19  -6.74892994911445E-04   1.38590718615509E-17   6.74892994765151E-04
      2.53037231013208E-17  -4.02772566487251E-16  -3.05484364077724E-17  -1.78832420011340E-18  -3.33806366549642E-19
     -1.19379101639282E-17  -3.05769578706308E-17  -1.19405083898619E-17  -3.05813587747537E-17   0.00000000000000E+00
      6.15472892008929E-17  -3.71557357917632E-19  -3.88973777807574E-19  -2.98361878377166E-15  -3.31362375028986E-19
     -2.64764292121266E-15  -3.31346005981202E-19  -3.07354756556342E-17  -3.94318014565302E-19   0.00000000000000E+00
      1.05623561131587E-18
}
