DF-ISE text

Info {
  version   = 1.0
  type      = xyplot
  datasets  = [
    "frequency"
    "v(d)" "v(s)" "v(g)" "v(b)" "a(d,d)"
    "c(d,d)" "a(d,s)" "c(d,s)" "a(d,g)" "c(d,g)"
    "a(d,b)" "c(d,b)" "a(s,d)" "c(s,d)" "a(s,s)"
    "c(s,s)" "a(s,g)" "c(s,g)" "a(s,b)" "c(s,b)"
    "a(g,d)" "c(g,d)" "a(g,s)" "c(g,s)" "a(g,g)"
    "c(g,g)" "a(g,b)" "c(g,b)" "a(b,d)" "c(b,d)"
    "a(b,s)" "c(b,s)" "a(b,g)" "c(b,g)" "a(b,b)"
    "c(b,b)" ]
  functions = [
    Frequency
    Voltage Voltage Voltage Voltage Admittance
    Capacitance Admittance Capacitance Admittance Capacitance
    Admittance Capacitance Admittance Capacitance Admittance
    Capacitance Admittance Capacitance Admittance Capacitance
    Admittance Capacitance Admittance Capacitance Admittance
    Capacitance Admittance Capacitance Admittance Capacitance
    Admittance Capacitance Admittance Capacitance Admittance
    Capacitance ]
}

Data {
      1.00000000000000E+06
      1.31342754739694E-45   6.80686009383989E-46   6.50000000000000E-01  -2.17410018130618E-49   1.48359829598058E-16
      1.44108584950819E-17  -1.30246981302090E-15  -2.13382068941277E-19   2.20717574452029E-17  -1.34971331358025E-17
     -6.42747421565831E-18  -5.39691205917027E-19  -1.30182578699515E-15  -2.13385728728358E-19   0.00000000000000E+00
      1.42545528562626E-17   2.43721319292239E-17  -1.34971261943952E-17   3.06259043628872E-17  -5.39672933168381E-19
      2.12616163413388E-17  -1.34972931580149E-17   2.12627610355105E-17  -1.34971082352095E-17   1.48359829598058E-16
      2.92247113496056E-17  -2.23138662407033E-16  -2.23030997166609E-18  -2.95025548969601E-17  -5.39722515978928E-19
     -2.95153123141950E-17  -5.39694933155072E-19  -2.23381614971082E-16  -2.23026347388878E-18   0.00000000000000E+00
      3.30991889593334E-18
      1.00000000000000E+06
     -9.29315865002759E-35   1.88712406830949E-33   5.57142857142857E-01  -1.46784282036332E-36   1.75064598925709E-14
      1.45685279672423E-17  -1.91721961683099E-14  -2.38956901052632E-19   1.71360595448135E-18  -1.38363126691690E-17
      4.28668210777295E-18  -4.00377181624713E-19  -1.91721015901572E-14  -2.38954897705612E-19   1.69130205741787E-14
      1.46607132060253E-17   2.74789212425619E-18  -1.38360370434512E-17   1.08331223580060E-17  -4.00345988235277E-19
      1.72584553688583E-18  -1.38366308451209E-17   1.72580990005580E-18  -1.38364422283481E-17   0.00000000000000E+00
      2.88927792636662E-17  -2.02812101034852E-17  -1.21970619052734E-18  -5.25519221587584E-18  -4.00166773538921E-19
     -5.24545347293109E-18  -4.00138618743483E-19  -1.99168949601286E-17  -1.22013708789139E-18   0.00000000000000E+00
      2.02016110506874E-18
      1.00000000000000E+06
      2.35756154408788E-32  -7.87257594177810E-32   4.64285714285714E-01   2.26864908575121E-34   2.81735316406713E-13
      1.46532949748137E-17  -2.82908366987338E-13  -2.56992416894247E-19   4.30424693682564E-20  -1.41094905394464E-17
      2.72632227645761E-19  -3.62765796354188E-19  -2.82908637349344E-13  -2.56987411819093E-19   2.81290236917919E-13
      1.48336740343630E-17   2.27101586471682E-19  -1.41090938058133E-17  -2.06672673573071E-18  -3.62730690386973E-19
      1.99002629366721E-19  -1.41096592695939E-17   1.98922966342315E-19  -1.41094640340709E-17   0.00000000000000E+00
      2.92495823038233E-17  -7.33148953635140E-18  -1.03045900105985E-18  -2.99618448064545E-18  -3.62508050990913E-19
     -2.98734431696206E-18  -3.62481073423195E-19  -6.57828144938859E-18  -1.03096656867370E-18   0.00000000000000E+00
      1.75606889124798E-18
      1.00000000000000E+06
      6.24957090763735E-35   1.04062366291640E-35   3.71428571428571E-01  -3.35586443255548E-37   4.08330759002736E-12
      1.48884112773101E-17  -4.08336128749010E-12  -2.75087252543200E-19  -8.47572172865470E-20  -1.43871547165535E-17
     -6.73075742552277E-18  -3.41404491099842E-19  -4.08336153654760E-12  -2.75084902634031E-19   4.08360430968656E-12
      1.49669999811063E-17  -1.19102584425508E-19  -1.43868607632833E-17  -4.61237666673179E-18  -3.41373574818452E-19
     -1.59209135564099E-19  -1.43872891623652E-17  -1.59276340143008E-19  -1.43870860090047E-17   0.00000000000000E+00
      2.97147077382713E-17  -5.53412212047722E-18  -9.40332570302551E-19  -2.34659441734002E-18  -3.41128330473348E-19
     -2.36146768428432E-18  -3.41102176350508E-19  -4.07453783741634E-18  -9.40872363293615E-19   0.00000000000000E+00
      1.62305861452863E-18
      1.00000000000000E+06
     -2.70763773672694E-36   2.65557757554203E-37   2.78571428571429E-01   5.46947681293962E-40   5.73329143490217E-11
      1.52862799568248E-17  -5.73314949819470E-11  -2.94830660242897E-19  -3.66927763856070E-19  -1.46829302985219E-17
     -9.51611650997271E-18  -3.25660272770925E-19  -5.73314952375547E-11  -2.94832956691848E-19   5.73311340310665E-11
      1.52271008159951E-17  -4.12890225724378E-19  -1.46827985256690E-17  -6.53900042998737E-18  -3.25636885821350E-19
     -3.98388063182189E-19  -1.46832020622975E-17  -3.98441711874743E-19  -1.46829888126802E-17   1.48359829598058E-16
      3.02406799678132E-17  -4.63517876654878E-18  -8.74489097047439E-19  -2.53578724256338E-18  -3.25366415294905E-19
     -2.53502849873463E-18  -3.25340935161645E-19  -4.52956473927477E-18  -8.75074818798702E-19   0.00000000000000E+00
      1.52576342906862E-18
      1.00000000000000E+06
     -4.78932651544227E-33   1.97630214955937E-32   1.85714285714286E-01  -2.30286577172368E-35   7.78821601667339E-10
      1.61983371237001E-17  -7.78819556393636E-10  -3.17507157739808E-19  -4.82863565815028E-19  -1.50075943445093E-17
     -9.55542552592205E-18  -3.13243591346161E-19  -7.78819558951142E-10  -3.17524271540045E-19   7.78819376269896E-10
      1.57567920082785E-17  -8.99918079171625E-19  -1.50079247723642E-17  -1.60987020821605E-18  -3.13241776757651E-19
     -6.04795313485152E-19  -1.50086541830504E-17  -6.04834634392820E-19  -1.50084271439300E-17   1.48359829598058E-16
      3.08374066138335E-17  -3.98032226051929E-18  -8.20325285604938E-19  -2.35696218194796E-18  -3.12943369217625E-19
     -2.35328335761109E-18  -3.12918521503192E-19  -3.92027480926567E-18  -8.20982859377622E-19   1.48359829598058E-16
      1.44674011163747E-18
      1.00000000000000E+06
     -9.53947759310061E-33   4.94525090873623E-33   9.28571428571429E-02  -2.42288854374917E-35   1.01516599083280E-08
      1.59237097187792E-17  -1.01516616805346E-08  -3.45286764782792E-19  -8.20091098279919E-19  -1.53815707764755E-17
     -1.36285905499419E-17  -3.03370591882549E-19  -1.01516616802355E-08  -3.45277396513768E-19   1.01516612435665E-08
      1.61009423693898E-17  -7.94578443395437E-19  -1.53810680130659E-17  -4.43473273206055E-18  -3.03337799755716E-19
     -8.03403667942141E-19  -1.53818091191159E-17  -8.03426330731523E-19  -1.53815620127898E-17   0.00000000000000E+00
      3.15368032069472E-17  -3.46208046839998E-18  -7.73432075253055E-19  -2.29869129772883E-18  -3.02981942701911E-19
     -2.30398851056526E-18  -3.02957693556564E-19  -3.61141120501675E-18  -7.74199303067876E-19   0.00000000000000E+00
      1.38007408359517E-18
      1.00000000000000E+06
     -9.96322661675960E-33  -1.40721464024467E-32   5.42101086242752E-20   5.51463728346883E-37   1.25037953835271E-07
      1.60701696569668E-17  -1.25037953619610E-07  -3.81498902139170E-19  -4.72488341382288E-19  -1.58406604019202E-17
     -1.29795501117765E-17  -2.95656333119301E-19  -1.25037953622421E-07  -3.81466888953633E-19   1.25037952796752E-07
      1.63258900131896E-17  -1.11953552559518E-18  -1.58400703806391E-17  -6.51639228454540E-18  -2.95620944896722E-19
     -1.01964617134328E-18  -1.58404902033279E-17  -1.01964712708312E-18  -1.58402125210610E-17   0.00000000000000E+00
      3.24122226351445E-17  -3.03756661080644E-18  -7.31519910474641E-19  -2.16067814148454E-18  -2.95166907918284E-19
     -2.15640091504477E-18  -2.95143207331739E-19  -3.00858333495274E-18  -7.32457103157657E-19   0.00000000000000E+00
      1.32280651793549E-18
      1.00000000000000E+06
      1.27468366202985E-32   7.33293066395444E-33  -9.28571428571429E-02   1.19039218226988E-37   1.40376195289733E-06
      7.69527093588940E-18  -1.40376198675046E-06  -4.29113358005688E-19   1.63822488932350E-17  -1.65041054688116E-17
     -8.20915978299731E-17  -2.90692753797054E-19  -1.40376198666103E-06  -4.23968409224082E-19   1.40376201520846E-06
      1.27941236396799E-17   8.97030609754172E-18  -1.64965125779018E-17  -4.42470035679209E-17  -2.90409881213257E-19
     -1.32181639767119E-18  -1.64890124202992E-17  -1.32178493742909E-18  -1.64886868133696E-17   0.00000000000000E+00
      3.36705185092578E-17  -2.68191737328380E-18  -6.92819317317604E-19  -2.04796704280091E-18  -2.89600873330742E-19
     -2.01663679327573E-18  -2.89577698898759E-19  -2.63952490258948E-18  -6.94033922024919E-19   0.00000000000000E+00
      1.27323393668631E-18
      1.00000000000000E+06
      3.87498858197222E-36   1.09008882218406E-36  -1.85714285714286E-01  -5.75197009312348E-42   1.28403323048046E-05
      1.80765349127512E-17  -1.28403323014097E-05  -3.00558082446623E-19  -5.73966208051941E-19  -1.76670196833066E-17
     -3.88546146615371E-18  -2.87892806630885E-19  -1.28403323014260E-05  -3.05804432470529E-19   1.28403323005022E-05
      1.74801083896537E-17   1.64606822426639E-18  -1.76679940779140E-17  -7.66892736336346E-18  -2.87902288792550E-19
     -2.01451973541191E-18  -1.76675138762146E-17  -2.01443182191807E-18  -1.76671134910019E-17   1.48359829598058E-16
      3.59891085199971E-17  -2.36951488611856E-18  -6.54481152830761E-19  -1.19750654392369E-18  -2.87025843076127E-19
     -1.28232636479641E-18  -2.87003088111202E-19  -2.11515595809841E-18  -6.56195291124592E-19   0.00000000000000E+00
      1.23023872267126E-18
      1.00000000000000E+06
     -1.35225846419784E-33   7.59418508667020E-34  -2.78571428571429E-01   1.18915491077327E-39   7.11392184179391E-05
      1.95835028211231E-17  -7.11392184183561E-05   7.58075975053645E-19  -2.74764440346102E-18  -1.99125672926938E-17
     -7.58295830478217E-19  -2.90909081258094E-19  -7.11392184183575E-05   7.54077793845590E-19   7.11392184180875E-05
      1.94964862583432E-17  -5.07519579566626E-18  -1.99123070553722E-17   1.87802730250289E-18  -2.90890337174128E-19
     -3.78354455466744E-18  -1.99142909285229E-17  -3.78336736897876E-18  -1.99137979256112E-17   0.00000000000000E+00
      4.04391178958501E-17  -2.06532085768275E-18  -6.11029039556508E-19  -2.27511555104340E-18  -2.89549679841206E-19
     -2.12528538446431E-18  -2.89526467277943E-19  -2.74357285578182E-18  -6.13762577564835E-19   0.00000000000000E+00
      1.19261111478125E-18
      1.00000000000000E+06
     -7.43472422035439E-35   6.01250320684071E-35  -3.71428571428571E-01   1.16900511557427E-40   1.95282578427190E-04
      1.80322047575827E-17  -1.95282578428097E-04   2.60856276287294E-18   4.19728179522063E-18  -2.24309290579754E-17
     -1.16152822091710E-17  -3.01143423848831E-19  -1.95282578428073E-04   2.69141366442527E-18   1.95282578427042E-04
      1.86806747490402E-17  -4.76290719140236E-18  -2.24279233794649E-17  -1.49027065623443E-17  -3.01092395896791E-19
     -5.74489478746900E-18  -2.24259063549298E-17  -5.74466148686252E-18  -2.24253684631517E-17   0.00000000000000E+00
      4.54102053106864E-17  -1.75149485961530E-18  -5.58930495626418E-19  -4.86791649675401E-18  -2.98640873130593E-19
     -5.20382020922049E-18  -2.98615302331393E-19  -2.86066179742482E-18  -5.63741171578085E-19   0.00000000000000E+00
      1.16095273195913E-18
      1.00000000000000E+06
     -3.70196782919317E-37  -7.48439966006060E-37  -4.64285714285714E-01   2.44039762399306E-44   3.38691268663671E-04
      2.01510604663042E-17  -3.38691268661331E-04   4.94853178108040E-18  -1.54218554075661E-17  -2.42451212499357E-17
     -1.67322615470167E-18  -3.16991900749982E-19  -3.38691268661415E-04   4.65519759215002E-18   3.38691268659072E-04
      1.89756469759671E-17  -8.77109112539184E-18  -2.42505481161849E-17  -3.22083671426504E-19  -3.17030580789597E-19
     -6.85248006922168E-18  -2.42513385009165E-17  -6.85226049406363E-18  -2.42508265204169E-17   0.00000000000000E+00
      4.90033954667994E-17  -1.44488893535523E-18  -5.01230282490742E-19  -1.47457424812095E-17  -3.12924873301047E-19
     -1.30357106227830E-17  -3.12895785137609E-19  -4.00256166148229E-18  -5.09405215801354E-19   0.00000000000000E+00
      1.13538198028023E-18
      1.00000000000000E+06
      1.36158394922847E-33  -8.27476500142824E-33  -5.57142857142857E-01  -1.93004808589906E-39   4.72857385774927E-04
      1.84230500367147E-17  -4.72857385779155E-04   5.99851151943669E-18  -4.06736212764791E-17  -2.55313535297818E-17
      1.08412145398512E-17  -3.36246615215015E-19  -4.72857385779781E-04   5.42013856198276E-18   4.72857385774333E-04
      1.68394042399880E-17  -1.03003446295748E-18  -2.55399941429669E-17   6.57840113437917E-18  -3.36332600081492E-19
     -7.44986071382305E-18  -2.55313842768598E-17  -7.44968565117354E-18  -2.55309316808822E-17   0.00000000000000E+00
      5.15055285897517E-17  -1.16629806058159E-18  -4.43212735584011E-19  -3.08623959594222E-17  -3.30379609041745E-19
     -3.22145539039314E-17  -3.30346775478495E-19  -5.92244402619739E-19  -4.54859981698049E-19   0.00000000000000E+00
      1.11582807063978E-18
      1.00000000000000E+06
     -5.59360736453763E-35   2.84204648615122E-35  -6.50000000000000E-01  -5.45608074669655E-38   5.92504719569159E-04
      2.21192758091960E-17  -5.92504719543276E-04   8.81575683941580E-18  -3.97627328660112E-17  -2.64454152969892E-17
      4.81539709149137E-17  -3.53965141301849E-19  -5.92504719541424E-04   1.21837426242865E-17   5.92504719520200E-04
      2.94273861747662E-17  -1.59890987283624E-16  -2.64015532606340E-17  -1.53428586815634E-16  -3.53520599136286E-19
     -7.78769329119246E-18  -2.64684811671911E-17  -7.78755646364408E-18  -2.64680950639799E-17   0.00000000000000E+00
      5.33292601375648E-17  -9.42472038565867E-19  -3.92684214017614E-19   1.58434824776296E-16  -3.47387665843323E-19
      1.56029347321236E-16  -3.47351224038547E-19  -5.01483395752296E-19  -4.05991815098293E-19   0.00000000000000E+00
      1.10287757404256E-18
}
