DF-ISE text

Info {
  version   = 1.0
  type      = xyplot
  datasets  = [
    "ndrain OuterVoltage" "ndrain TotalCurrent" "nsource OuterVoltage" "nsource TotalCurrent" "substrate OuterVoltage" "ngate OuterVoltage" ]
  functions  = [
    OuterVoltage TotalCurrent OuterVoltage TotalCurrent OuterVoltage OuterVoltage ]
}

Data {
0.05 8.85182621107e-13 0.0 -8.85141117187e-13 0.0 -0.3
0.05 1.6559841764e-11 0.0 -1.65590994281e-11 0.0 -0.2
0.05 2.99916376815e-10 0.0 -2.9990317535e-10 0.0 -0.1
0.05 5.19141412657e-9 0.0 -5.19118121868e-9 0.0 0
0.05 8.28141186015e-8 0.0 -8.28100482043e-8 0.0 0.1
0.05 1.04653054795e-6 0.0 -1.04646389066e-6 0.0 0.2
0.05 6.70767326806e-6 0.0 -6.7070148275e-6 0.0 0.3
0.05 1.92905283883e-5 0.0 -1.92881597273e-5 0.0 0.4
0.05 3.50936863439e-5 0.0 -3.50907122963e-5 0.0 0.5
0.05 4.89347320554e-5 0.0 -4.89331607748e-5 0.0 0.6
0.05 5.44403341189e-5 0.0 -5.44392865259e-5 0.0 0.65
}
