DF-ISE text

Info {
  version   = 1.0
  type      = xyplot
  datasets  = [
    "ndrain OuterVoltage" "ndrain TotalCurrent" "nsource OuterVoltage" "nsource TotalCurrent" "substrate OuterVoltage" "ngate OuterVoltage" ]
  functions  = [
    OuterVoltage TotalCurrent OuterVoltage TotalCurrent OuterVoltage OuterVoltage ]
}

Data {
0.65 7.22944926333e-12 0.0 -7.22927397603e-12 0.0 -0.3
0.65 1.36416296159e-10 0.0 -1.3641325559e-10 0.0 -0.2
0.65 2.44495191639e-9 0.0 -2.44490086401e-9 0.0 -0.1
0.65 4.03858722746e-8 0.0 -4.03850121993e-8 0.0 0
0.65 5.50646373278e-7 0.0 -5.5063089508e-7 0.0 0.1
0.65 4.30108231341e-6 0.0 -4.30084712133e-6 0.0 0.2
0.65 1.49394636918e-5 0.0 -1.49379112793e-5 0.0 0.3
0.65 3.08765481422e-5 0.0 -3.08718540018e-5 0.0 0.4
0.65 4.97451894356e-5 0.0 -4.97348707201e-5 0.0 0.5
0.65 7.025308383e-5 0.0 -7.02361153119e-5 0.0 0.6
0.65 8.09152213112e-5 0.0 -8.08953155354e-5 0.0 0.65
}
