DF-ISE text

Info {
  version   = 1.0
  type      = xyplot
  datasets  = [
    "ndrain OuterVoltage" "ndrain TotalCurrent" "nsource OuterVoltage" "nsource TotalCurrent" "substrate OuterVoltage" "ngate OuterVoltage" ]
  functions  = [
    OuterVoltage TotalCurrent OuterVoltage TotalCurrent OuterVoltage OuterVoltage ]
}

Data {
0.05 1.42644909599e-14 0.0 -1.42638425317e-14 0.0 -0.3
0.05 4.41533018642e-13 0.0 -4.41515560162e-13 0.0 -0.2
0.05 1.34493230215e-11 0.0 -1.344883012e-11 0.0 -0.1
0.05 4.01278430973e-10 0.0 -4.01263947376e-10 0.0 0
0.05 1.15168939485e-8 0.0 -1.15164298539e-8 0.0 0.1
0.05 2.93636057262e-7 0.0 -2.93620048977e-7 0.0 0.2
0.05 3.9053169824e-6 0.0 -3.90495401904e-6 0.0 0.3
0.05 1.54727431543e-5 0.0 -1.54708810553e-5 0.0 0.4
0.05 3.06796987078e-5 0.0 -3.06771526808e-5 0.0 0.5
0.05 4.39411410362e-5 0.0 -4.39393413501e-5 0.0 0.6
0.05 4.93292056904e-5 0.0 -4.93277689841e-5 0.0 0.65
}
