DF-ISE text

Info {
  version   = 1.0
  type      = xyplot
  datasets  = [
    "ndrain OuterVoltage" "ndrain TotalCurrent" "nsource OuterVoltage" "nsource TotalCurrent" "substrate OuterVoltage" "ngate OuterVoltage" ]
  functions  = [
    OuterVoltage TotalCurrent OuterVoltage TotalCurrent OuterVoltage OuterVoltage ]
}

Data {
0.65 3.69644058528e-14 0.0 -3.69598613436e-14 0.0 -0.3
0.65 1.16079641011e-12 0.0 -1.16067883736e-12 0.0 -0.2
0.65 3.56788785603e-11 0.0 -3.56758463789e-11 0.0 -0.1
0.65 1.06280995434e-9 0.0 -1.0627324195e-9 0.0 0
0.65 2.98289598732e-8 0.0 -2.98269177905e-8 0.0 0.1
0.65 6.74625900287e-7 0.0 -6.74569635855e-7 0.0 0.2
0.65 6.31811222745e-6 0.0 -6.31716046083e-6 0.0 0.3
0.65 2.00280107621e-5 0.0 -2.00228769e-5 0.0 0.4
0.65 3.83375960047e-5 0.0 -3.83240079323e-5 0.0 0.5
0.65 5.88781686649e-5 0.0 -5.88516503745e-5 0.0 0.6
0.65 6.96511088487e-5 0.0 -6.96151965048e-5 0.0 0.65
}
