DF-ISE text

Info {
  version   = 1.0
  type      = xyplot
  datasets  = [
    "frequency"
    "v(d)" "v(s)" "v(g)" "v(b)" "a(d,d)"
    "c(d,d)" "a(d,s)" "c(d,s)" "a(d,g)" "c(d,g)"
    "a(d,b)" "c(d,b)" "a(s,d)" "c(s,d)" "a(s,s)"
    "c(s,s)" "a(s,g)" "c(s,g)" "a(s,b)" "c(s,b)"
    "a(g,d)" "c(g,d)" "a(g,s)" "c(g,s)" "a(g,g)"
    "c(g,g)" "a(g,b)" "c(g,b)" "a(b,d)" "c(b,d)"
    "a(b,s)" "c(b,s)" "a(b,g)" "c(b,g)" "a(b,b)"
    "c(b,b)" ]
  functions = [
    Frequency
    Voltage Voltage Voltage Voltage Admittance
    Capacitance Admittance Capacitance Admittance Capacitance
    Admittance Capacitance Admittance Capacitance Admittance
    Capacitance Admittance Capacitance Admittance Capacitance
    Admittance Capacitance Admittance Capacitance Admittance
    Capacitance Admittance Capacitance Admittance Capacitance
    Admittance Capacitance Admittance Capacitance Admittance
    Capacitance ]
}

Data {
      1.00000000000000E+06
     -1.52698941579576E-45  -9.38920672845514E-46   6.50000000000000E-01   2.55665347870176E-48   0.00000000000000E+00
      1.42218648381253E-17   3.54635522323295E-18  -8.60870657923622E-20   4.55670429915951E-17  -1.34347486493805E-17
     -9.18616418024435E-18  -6.88930631415216E-19   3.83463268038706E-18  -8.60873110846093E-20   0.00000000000000E+00
      1.41846428360707E-17   4.39480044325850E-17  -1.34343027790898E-17  -4.49828792707444E-17  -6.88910338628264E-19
      4.35848062236578E-17  -1.34341414188874E-17   4.35877788343280E-17  -1.34336651566777E-17   0.00000000000000E+00
      3.16701356132993E-17  -6.11499053558373E-16  -4.80232899354039E-18  -5.30811946997992E-17  -6.89546948163788E-19
     -5.30532123835684E-17  -6.89523689668160E-19  -6.11979541287467E-16  -4.80108770784111E-18   0.00000000000000E+00
      6.18064142741084E-18
      1.00000000000000E+06
      1.22535741272591E-33  -1.39776658698286E-32   5.57142857142857E-01   2.89320060070935E-34   0.00000000000000E+00
      1.44545875213033E-17  -1.58478123539932E-19  -1.11107608132383E-19   2.09794484690289E-18  -1.39267019270864E-17
     -3.20572551858273E-18  -4.00314528301083E-19   9.36087502175462E-20  -1.11108394304222E-19   0.00000000000000E+00
      1.43669570545184E-17   2.59805283066940E-18  -1.39262782444982E-17  -4.39009040045170E-18  -4.00286259597387E-19
      1.55079094861139E-18  -1.39268464155754E-17   1.55085775103999E-18  -1.39263509408913E-17   0.00000000000000E+00
      2.93417583780799E-17  -2.41661749257619E-17  -1.48856102944472E-18  -3.92567832535956E-18  -4.00183197304879E-19
     -3.88100939298507E-18  -4.00150750910323E-19  -2.41564202265127E-17  -1.48882555738779E-18   0.00000000000000E+00
      2.28900395279876E-18
      1.00000000000000E+06
      7.07731107094392E-36   3.58820414683165E-36   4.64285714285714E-01  -1.69096485689131E-37   0.00000000000000E+00
      1.46118316175208E-17  -9.94689756807283E-18  -1.21961691826481E-19   2.60883703202826E-19  -1.42226455682105E-17
     -3.81672347362336E-18  -3.56246209899237E-19  -1.00800086308337E-17  -1.21959564254468E-19   0.00000000000000E+00
      1.48320063801920E-17   6.18426110912232E-19  -1.42219390482232E-17   5.67153500883925E-19  -3.56205816426168E-19
     -2.62378819089981E-20  -1.42227929761824E-17  -2.62285589139606E-20  -1.42222640097487E-17   0.00000000000000E+00
      2.96346892006893E-17  -6.57518316434744E-18  -1.18963221602948E-18  -1.59508046386387E-18  -3.56030523525655E-19
     -1.65344280970268E-18  -3.55999363099014E-19  -5.65269867547674E-18  -1.19005756206529E-18   0.00000000000000E+00
      1.90188505602762E-18
      1.00000000000000E+06
      2.84814024231160E-35   2.80701709771307E-35   3.71428571428571E-01  -2.31000538050763E-36   0.00000000000000E+00
      1.49261732489247E-17  -4.75132014985035E-16  -1.31863796662981E-19  -3.88108217876799E-19  -1.45143682419105E-17
      5.68895150690391E-18  -3.33816440778029E-19  -4.75510171858698E-16  -1.31863145808069E-19   0.00000000000000E+00
      1.49909642855130E-17  -4.14239863727040E-19  -1.45137524853099E-17  -2.19996703082327E-18  -3.33784065505722E-19
     -3.29566301548678E-19  -1.45145462654401E-17  -3.29535193182622E-19  -1.45139804440334E-17   0.00000000000000E+00
      3.01062407187791E-17  -4.99293067865204E-18  -1.07771400921250E-18  -1.37312858395224E-18  -3.33596561972095E-19
     -1.39993928041374E-18  -3.33566311390285E-19  -4.36287907382371E-18  -1.07815059482829E-18   0.00000000000000E+00
      1.74533940854814E-18
      1.00000000000000E+06
     -6.66447940585992E-36  -7.04337981797291E-36   2.78571428571429E-01  -2.30841678858669E-37   1.88416983589534E-14
      1.54646546296959E-17  -2.08323529341526E-14  -1.42127208778276E-19  -7.58644760242325E-19  -1.48197175807014E-17
      1.17959037560135E-18  -3.17532472658860E-19  -2.08325838322118E-14  -1.42130194850870E-19   1.91384180181495E-14
      1.51950441389651E-17  -5.17236453789767E-19  -1.48193248686315E-17  -1.76285083959358E-18  -3.17511367060559E-19
     -5.41513264974082E-19  -1.48200892743510E-17  -5.41459750472291E-19  -1.48194836499947E-17   0.00000000000000E+00
      3.06385206143869E-17  -4.14531692022052E-18  -9.98947690150921E-19  -1.34985289041039E-18  -3.17310190654928E-19
     -1.34819130041665E-18  -3.17280787987267E-19  -4.13958974612371E-18  -9.99403043115987E-19   0.00000000000000E+00
      1.63419162604350E-18
      1.00000000000000E+06
      3.29477654848956E-33   1.19277190065993E-32   1.85714285714286E-01  -5.10905557794835E-35   8.84818023722820E-13
      1.54882200580514E-17  -8.86067034701375E-13  -1.53390171891683E-19  -6.74502088406924E-19  -1.51499454916875E-17
      4.58896702223506E-18  -3.04703314196503E-19  -8.86067388980882E-13  -1.53390474337424E-19   8.86449981848399E-13
      1.54637355090310E-17  -7.68802729279420E-19  -1.51493240316904E-17   1.77243266323922E-17  -3.04675414246483E-19
     -7.24076473146927E-19  -1.51500894984959E-17  -7.23998962632180E-19  -1.51494400112485E-17   0.00000000000000E+00
      3.12349327440761E-17  -3.53135365165164E-18  -9.35403234462362E-19  -1.18271420253036E-18  -3.04453479626384E-19
     -1.19081516813805E-18  -3.04424905278683E-19  -3.54056473432708E-18  -9.35894078938437E-19   1.48359829598058E-16
      1.54518995212716E-18
      1.00000000000000E+06
     -2.27725625469259E-36  -1.56367845599017E-36   9.28571428571429E-02  -2.76144722438315E-40   3.63708573054528E-11
      1.51986815607460E-17  -3.63729916476907E-11  -1.66467864847444E-19  -6.11076651604634E-19  -1.55202676056032E-17
      5.27375085600918E-18  -2.94334830025012E-19  -3.63729880170617E-11  -1.66453203298455E-19   3.63714507447712E-11
      1.61717293687571E-17  -9.90363644085989E-19  -1.55186773944287E-17   1.28154196616486E-18  -2.94277165025770E-19
     -8.97905425541882E-19  -1.55198384257813E-17  -8.97803674828660E-19  -1.55191372183048E-17   0.00000000000000E+00
      3.19201470666630E-17  -3.05100637096865E-18  -8.81171468422250E-19  -1.06413140831556E-18  -2.94035133099851E-19
     -1.05847556423857E-18  -2.94007193022667E-19  -3.05590411737322E-18  -8.81722967292383E-19   0.00000000000000E+00
      1.46953723411137E-18
      1.00000000000000E+06
      1.73908133878207E-36   2.62015441625457E-36   5.42101086242752E-20   2.87067279307924E-42   1.42495655121485E-09
      1.63582211292206E-17  -1.42495586807241E-09  -1.82816396166665E-19  -9.69209714701519E-19  -1.59570695205458E-17
     -1.71970386355539E-18  -2.86248848252285E-19  -1.42495586777875E-09  -1.82814766754257E-19   1.42495625449519E-09
      1.64443188682683E-17  -9.61488534410296E-19  -1.59562139347611E-17  -2.74789804813537E-18  -2.86218592761407E-19
     -1.07866534840128E-18  -1.59573286176684E-17  -1.07852740293684E-18  -1.59565605906496E-17   0.00000000000000E+00
      3.27480673670592E-17  -2.67090205627050E-18  -8.34178158251456E-19  -9.48532093438983E-19  -2.85921693579548E-19
     -9.64074331945692E-19  -2.85894240199628E-19  -2.67137580739147E-18  -8.34828406581106E-19   0.00000000000000E+00
      1.40663210408087E-18
      1.00000000000000E+06
      1.36163832906250E-36  -1.21935598912285E-36  -9.28571428571429E-02   1.10587366969937E-42   5.20779229875975E-08
      1.70112923358697E-17  -5.20779221792242E-08  -2.05662341964365E-19  -1.33487394008523E-18  -1.65302022754731E-17
     -2.90046815346544E-18  -2.80413613971324E-19  -5.20779221790035E-08  -2.05670209683544E-19   5.20779240261163E-08
      1.68850414007622E-17  -1.27893452450931E-18  -1.65295146437745E-17  -3.89599472819313E-18  -2.80390213568506E-19
     -1.30085777778361E-18  -1.65306060603179E-17  -1.30067129133523E-18  -1.65297446263557E-17   0.00000000000000E+00
      3.38527193732333E-17  -2.36476149287814E-18  -7.92368686232375E-19  -1.87947605932633E-18  -2.80004519697292E-19
     -1.92269728966027E-18  -2.79977455165099E-19  -4.97969697592710E-18  -7.93189882675372E-19   0.00000000000000E+00
      1.35085919691738E-18
      1.00000000000000E+06
      1.68760709820244E-35   1.60842566595490E-35  -1.85714285714286E-01  -1.89827753597245E-41   1.65831799405720E-06
      1.79459785026318E-17  -1.65831799404726E-06  -2.14421798812191E-19  -2.14928938077378E-18  -1.75058935836379E-17
     -4.25061305044363E-20  -2.76773996559095E-19  -1.65831799404196E-06  -2.14527585416071E-19   1.65831799435392E-06
      1.78519576977832E-17  -1.28728931679216E-18  -1.75050730664711E-17  -3.25315381571067E-18  -2.76750216090003E-19
     -1.74142806928100E-18  -1.75063709142209E-17  -1.74115639690309E-18  -1.75053659542336E-17   0.00000000000000E+00
      3.57638191432540E-17  -2.09623173967389E-18  -7.52082274737571E-19  -2.59501541839567E-18  -2.76206334134422E-19
     -2.95700570021336E-18  -2.76179767945953E-19  -7.72102792609439E-18  -7.53214638148873E-19   0.00000000000000E+00
      1.30481007666201E-18
      1.00000000000000E+06
     -7.98636577617913E-33  -3.53014144402295E-33  -2.78571428571429E-01   2.64393529912565E-39   3.23006221094845E-05
      1.99515876705032E-17  -3.23006221096823E-05   5.11522733191787E-19  -1.25200084868399E-17  -2.02573943654779E-17
      3.99030407639541E-18  -2.77759958076367E-19  -3.23006221097014E-05   5.14605043746899E-19   3.23006221093361E-05
      2.00905501551043E-17  -3.53221893329540E-19  -2.02557552100088E-17   3.77434799310763E-18  -2.77727131201961E-19
     -3.92422842450494E-18  -2.02581248644842E-17  -3.92375349085347E-18  -2.02568801286441E-17   0.00000000000000E+00
      4.12213881874140E-17  -1.82529224114158E-18  -7.06383194021934E-19  -1.12884873073427E-18  -2.76838530453420E-19
     -1.32848568600749E-18  -2.76811824855886E-19  -2.56655956396137E-18  -7.08218394329089E-19   0.00000000000000E+00
      1.26273871713258E-18
      1.00000000000000E+06
     -2.28449494789290E-35  -3.80587703306876E-34  -3.71428571428571E-01   6.85675787744461E-40   1.70057528375558E-04
      1.87610466907369E-17  -1.70057528374000E-04   3.21162657379455E-18   6.94574016370225E-18  -2.48498882468047E-17
      1.01733139354596E-17  -2.89613951859856E-19  -1.70057528374094E-04   3.47650244118017E-18   1.70057528376300E-04
      2.09634444231567E-17  -1.30228997313546E-17  -2.48381734435540E-17  -5.74743210557917E-18  -2.89466102241536E-19
     -8.09653149145597E-18  -2.48385060620852E-17  -8.09582397466046E-18  -2.48370630842595E-17   0.00000000000000E+00
      5.03205095804955E-17  -1.51782107823698E-18  -6.44940447602622E-19   9.66786694207326E-18  -2.87583507551376E-19
      1.08398054650673E-17  -2.87553827678103E-19  -5.79418377702129E-18  -6.48709613933711E-19   0.00000000000000E+00
      1.22441792719310E-18
      1.00000000000000E+06
      5.35674858527615E-34  -4.13602308091009E-33  -4.64285714285714E-01   1.66649184342835E-38   3.49200527828806E-04
      1.76187051899553E-17  -3.49200527825757E-04   5.31354796484865E-18   1.66787785140299E-17  -2.77623831167518E-17
      1.77971559480277E-17  -3.10613242132197E-19  -3.49200527825480E-04   4.70775110068116E-18   3.49200527836669E-04
      1.52710532692662E-17   3.00116661402017E-17  -2.77766132781777E-17   9.08394851565260E-18  -3.10666971237287E-19
     -9.79017841163903E-18  -2.77436420417222E-17  -9.78945669517774E-18  -2.77421991596547E-17   0.00000000000000E+00
      5.60597299440288E-17  -1.21803356199462E-18  -5.73888859586736E-19  -1.65534026142944E-17  -3.06162762030688E-19
     -1.64439144320994E-17  -3.06127803096928E-19  -1.09642648597666E-18  -5.82353882946765E-19   1.48359829598058E-16
      1.19561347189592E-18
      1.00000000000000E+06
      7.14087959796219E-35   6.02165842353677E-35  -5.57142857142857E-01   2.04031962307766E-39   5.12159492846715E-04
      1.58593914089354E-17  -5.12159492824249E-04   6.11238170301065E-18  -2.92956817015368E-17  -2.95637576407320E-17
      4.26454199109123E-17  -3.38404550214171E-19  -5.12159492825132E-04   7.05396488228682E-18   5.12159492822384E-04
      1.82134337541655E-17  -1.13494744343765E-17  -2.95485394042365E-17   2.54640447471245E-18  -3.38250897843660E-19
     -1.04608534681770E-17  -2.95357498872938E-17  -1.04602090773622E-17  -2.95344012241897E-17   0.00000000000000E+00
      5.95689494447755E-17  -9.42501921876839E-19  -4.98798200424533E-19  -1.97070200817339E-18  -3.30417736587913E-19
     -3.43564276426275E-18  -3.30377381361634E-19  -1.87747729917719E-19  -5.14287766755875E-19   0.00000000000000E+00
      1.17454326868941E-18
      1.00000000000000E+06
     -1.30419583606881E-33  -5.02780679091272E-34  -6.50000000000000E-01   2.83852607603104E-37   6.53316584884290E-04
     -3.72980485241905E-19  -6.53316585530511E-04  -1.28444901339552E-18  -3.47556597444308E-15  -3.09089696382363E-17
      1.02214702501907E-16  -3.65779263467212E-19  -6.53316585365910E-04   3.68416568074582E-18   6.53316585167361E-04
      9.23612552251230E-18  -8.93334387005581E-16  -3.08447906006265E-17   1.05171854086468E-17  -3.65527404073988E-19
     -1.07913509722954E-17  -3.07743868511629E-17  -1.07908042415746E-17  -3.07731656874303E-17   1.48359829598058E-16
      6.19793003548849E-17  -7.19780877373501E-19  -4.31747486300130E-19  -2.00997264268151E-16  -3.55501521950825E-19
     -2.11883430135208E-16  -3.55456272389869E-19   1.95626270445384E-18  -4.51481126800236E-19   0.00000000000000E+00
      1.16454367007381E-18
}
