DF-ISE text

Info {
  version   = 1.0
  type      = xyplot
  datasets  = [
    "frequency"
    "v(d)" "v(s)" "v(g)" "v(b)" "a(d,d)"
    "c(d,d)" "a(d,s)" "c(d,s)" "a(d,g)" "c(d,g)"
    "a(d,b)" "c(d,b)" "a(s,d)" "c(s,d)" "a(s,s)"
    "c(s,s)" "a(s,g)" "c(s,g)" "a(s,b)" "c(s,b)"
    "a(g,d)" "c(g,d)" "a(g,s)" "c(g,s)" "a(g,g)"
    "c(g,g)" "a(g,b)" "c(g,b)" "a(b,d)" "c(b,d)"
    "a(b,s)" "c(b,s)" "a(b,g)" "c(b,g)" "a(b,b)"
    "c(b,b)" ]
  functions = [
    Frequency
    Voltage Voltage Voltage Voltage Admittance
    Capacitance Admittance Capacitance Admittance Capacitance
    Admittance Capacitance Admittance Capacitance Admittance
    Capacitance Admittance Capacitance Admittance Capacitance
    Admittance Capacitance Admittance Capacitance Admittance
    Capacitance Admittance Capacitance Admittance Capacitance
    Admittance Capacitance Admittance Capacitance Admittance
    Capacitance ]
}

Data {
      1.00000000000000E+06
      7.53971130175625E-49  -1.32011636350356E-46  -6.50000000000000E-01  -3.23273284380677E-48   1.70317084378571E-13
      1.37380611966938E-17  -1.73900133017589E-13  -9.29667723138976E-20  -2.39260686025989E-19  -1.33552092913365E-17
     -3.37220059393808E-17  -2.98896630562380E-19  -1.73900137470766E-13  -9.29657538112421E-20   1.69575285230581E-13
      1.38682990738658E-17   3.93847505588500E-19  -1.33550594645244E-17  -2.99434610639444E-17  -2.98858343262549E-19
     -2.84193318021363E-19  -1.33552693067619E-17  -2.84447658512235E-19  -1.33552437937566E-17   0.00000000000000E+00
      2.78001930955777E-17  -7.11927171386471E-18  -1.08967999465459E-18  -3.01669959096121E-17  -2.98828993706776E-19
     -3.01629149108477E-17  -2.98793743128393E-19  -7.18666969121464E-18  -1.08981385350825E-18   1.48359829598058E-16
      1.68759641061701E-18
      1.00000000000000E+06
      6.46616705224189E-35   1.63798794569326E-34  -5.57142857142857E-01   4.46373250416643E-36   1.67127348042213E-12
      1.40538506807946E-17  -1.67045466221352E-12  -9.98833813272932E-20  -5.67600109060407E-19  -1.35830039744631E-17
     -3.77001565088425E-17  -2.81164333566545E-19  -1.67045410568195E-12  -9.98831261147548E-20   1.67097676076293E-12
      1.40913880161386E-17  -4.62416763250141E-19  -1.35829384769408E-17  -4.63010803575450E-17  -2.81129449598668E-19
     -5.89110099761373E-19  -1.35831573684675E-17  -5.89354382748985E-19  -1.35831348042949E-17   0.00000000000000E+00
      2.81559555789303E-17  -5.26545848326940E-18  -9.89663406584160E-19  -3.12422486432847E-17  -2.81091070190399E-19
     -3.12001046681068E-17  -2.81056926272562E-19  -6.25523984413954E-18  -9.89815924626151E-19   1.48359829598058E-16
      1.55162532746792E-18
      1.00000000000000E+06
     -2.92068816289915E-32  -7.16874650213317E-33  -4.64285714285714E-01   2.97411510685350E-35   1.59273178663292E-11
      1.41372023630758E-17  -1.59281299558412E-11  -1.06970332121037E-19  -8.33630072690051E-19  -1.38178182840432E-17
     -3.40895309314526E-17  -2.68242105251991E-19  -1.59281298613796E-11  -1.06970063942769E-19   1.59268727868404E-11
      1.41647801936663E-17  -9.00483266329293E-19  -1.38177798258698E-17  -3.39582124114050E-17  -2.68207884918806E-19
     -7.92371039712246E-19  -1.38178594044154E-17  -7.92611013461493E-19  -1.38178396638192E-17   0.00000000000000E+00
      2.85560943686525E-17  -4.37523926464887E-18  -9.20395299351745E-19  -3.22465203322589E-17  -2.68154609972073E-19
     -3.22615857565657E-17  -2.68121353293438E-19  -5.01492301690720E-18  -9.20567299109203E-19   0.00000000000000E+00
      1.45683777678185E-18
      1.00000000000000E+06
     -1.23300738271475E-36   3.43694083486849E-37  -3.71428571428571E-01  -2.55440301782935E-38   1.49986891849260E-10
      1.44824702379174E-17  -1.49986506255970E-10  -1.14589168753351E-19  -1.26327659769673E-18  -1.40665544859278E-17
     -3.64413442013490E-17  -2.58109739850943E-19  -1.49986506169914E-10  -1.14589660560893E-19   1.49985853330453E-10
      1.44371138932812E-17  -1.11592694278246E-18  -1.40665783212405E-17  -3.12933528701773E-17  -2.58078053816648E-19
     -9.63017758533519E-19  -1.40666931924928E-17  -9.63255926079045E-19  -1.40666762456021E-17   0.00000000000000E+00
      2.89983597026820E-17  -3.75699846571144E-18  -8.64990264930543E-19  -3.32244750124247E-17  -2.58010446521558E-19
     -3.32219425333589E-17  -2.57977927610227E-19  -3.77017820001377E-18  -8.65190064796628E-19   0.00000000000000E+00
      1.38130890646068E-18
      1.00000000000000E+06
     -7.71312134125655E-33  -3.00050912936055E-32  -2.78571428571429E-01  -1.20849000464244E-34   1.38919515608938E-09
      1.47613584758968E-17  -1.38919591966747E-09  -1.23185351314857E-19  -2.21803110721303E-18  -1.43395732299047E-17
     -4.15336043420228E-17  -2.50012653104154E-19  -1.38919592032774E-09  -1.23185248362498E-19   1.38919782656632E-09
      1.47693710294973E-17  -8.05573293223708E-19  -1.43395489265941E-17  -3.71656868506281E-17  -2.49980356827059E-19
     -1.12159528115851E-18  -1.43397392432659E-17  -1.12183351385975E-18  -1.43397253190475E-17   1.48359829598058E-16
      2.94973126029666E-17  -3.27749712669607E-18  -8.17848039730388E-19  -3.44755321552532E-17  -2.49894088883177E-19
     -3.44779479185011E-17  -2.49862155511146E-19  -3.39495494522742E-18  -8.18087667208372E-19   0.00000000000000E+00
      1.31777963876884E-18
      1.00000000000000E+06
      1.84097914604047E-34   3.11052262648606E-33  -1.85714285714286E-01  -8.69877610197287E-37   1.25916521311013E-08
      1.52305836258307E-17  -1.25916517582975E-08  -1.33382651920029E-19  -1.95124465059844E-18  -1.46529916720478E-17
     -4.05858071526035E-17  -2.43608976800121E-19  -1.25916517570635E-08  -1.33385620734792E-19   1.25916522794611E-08
      1.51172785473946E-17  -1.09276373968851E-18  -1.46530939346911E-17  -3.75525145661223E-17  -2.43580171575489E-19
     -1.28202747379087E-18  -1.46533522521786E-17  -1.28226787148572E-18  -1.46533420063127E-17   0.00000000000000E+00
      3.00829703138309E-17  -2.88830665096741E-18  -7.76276055333682E-19  -3.54758290894749E-17  -2.43465993101186E-19
     -3.54874942734662E-17  -2.43434541572892E-19  -2.37512838618313E-18  -7.76568678219094E-19   0.00000000000000E+00
      1.26443451323564E-18
      1.00000000000000E+06
      2.00824243744034E-33   4.38167862585211E-33  -9.28571428571429E-02   1.63164047384724E-36   1.10739745734152E-07
      1.56491187418128E-17  -1.10739745809090E-07  -1.45418145262599E-19  -2.04373674607221E-18  -1.50385598407090E-17
     -3.80668617689200E-17  -2.38783366289661E-19  -1.10739745808387E-07  -1.45455543687148E-19   1.10739747514470E-07
      1.53330456931596E-17  -1.64458309762412E-18  -1.50389718311205E-17  -3.83547951027164E-17  -2.38760632038556E-19
     -1.46339127651568E-18  -1.50390360205847E-17  -1.46363622225870E-18  -1.50390307807334E-17   0.00000000000000E+00
      3.08165157914437E-17  -2.56207858788167E-18  -7.38448990087055E-19  -3.69448595786926E-17  -2.38602481437266E-19
     -3.69478736742664E-17  -2.38571444640883E-19  -2.35194744752664E-18  -7.38822718389366E-19   0.00000000000000E+00
      1.21596332713145E-18
      1.00000000000000E+06
      8.66481035343841E-33   2.17706740065651E-33  -5.42101086242752E-20   1.12901164259431E-38   9.27829676040082E-07
      1.05511454683433E-17  -9.27829690393726E-07  -1.55549471966379E-19  -4.77070961278398E-18  -1.55821664966820E-17
     -4.69764708395988E-17  -2.35824637307465E-19  -9.27829690373856E-07  -1.52252626633214E-19   9.27829704080090E-07
      1.44517129591079E-17   1.50652718834104E-17  -1.55758090208575E-17   3.77267040689750E-18  -2.35688701652388E-19
     -1.71172772239645E-18  -1.55733935911880E-17  -1.71198271431977E-18  -1.55733956414879E-17   0.00000000000000E+00
      3.18495231585074E-17  -2.28003229616084E-18  -7.02733946139705E-19  -3.85851254839942E-17  -2.35433402841911E-19
     -3.84993504946567E-17  -2.35402779904903E-19  -2.23588430268347E-18  -7.03224821809623E-19   1.48359829598058E-16
      1.17395693252545E-18
      1.00000000000000E+06
     -1.91456596516059E-33  -2.62178581777219E-32   9.28571428571429E-02  -1.24151876048211E-37   7.02898816566082E-06
      1.64833222249122E-17  -7.02898816378915E-06  -6.28816664439189E-20  -3.21154989710611E-18  -1.64857036881434E-17
     -4.01761662519103E-17  -2.35021619533062E-19  -7.02898816380064E-06  -6.29217186973826E-20   7.02898816358379E-06
      1.64694723349961E-17  -4.79306342443464E-18  -1.64857388818733E-17  -4.65505905531956E-17  -2.34991862435882E-19
     -2.19632087848010E-18  -1.64853064244843E-17  -2.19659272298786E-18  -1.64853182792928E-17   0.00000000000000E+00
      3.36376403579927E-17  -2.02675690708940E-18  -6.67015654212049E-19  -4.01936524334227E-17  -2.34673709230157E-19
     -4.03730036931099E-17  -2.34643471475553E-19  -2.34666400685224E-18  -6.67692088063932E-19   1.48359829598058E-16
      1.13763600688961E-18
      1.00000000000000E+06
     -1.57465460912465E-35  -2.90306775510935E-35   1.85714285714286E-01  -6.89495195874891E-41   4.09910803092348E-05
      1.79758582499761E-17  -4.09910803115249E-05   6.37280391594910E-19  -3.25639106532821E-18  -1.83469932827629E-17
     -3.83348199440116E-17  -2.38954569363293E-19  -4.09910803115229E-05   6.37938379397942E-19   4.09910803083447E-05
      1.79950131384215E-17   2.18085728230605E-18  -1.83469399062726E-17  -3.49581745819103E-17  -2.38923339960450E-19
     -3.49177986823232E-18  -1.83475950166622E-17  -3.49207795234365E-18  -1.83476116428087E-17   0.00000000000000E+00
      3.73222261219575E-17  -1.78212843710288E-18  -6.27019462482455E-19  -3.04606908926130E-17  -2.38448618932249E-19
     -2.30804674511309E-17  -2.38418244545161E-19   1.94545320692693E-18  -6.28031174095005E-19   0.00000000000000E+00
      1.10547873876790E-18
      1.00000000000000E+06
      2.70385649728448E-35  -5.80372061954797E-36   2.78571428571429E-01   1.91968065183946E-40   1.40245912040445E-04
      1.87909747095191E-17  -1.40245912048213E-04   2.68545330814789E-18  -3.12502485749994E-17  -2.12444411785936E-17
     -5.03461698805240E-17  -2.51211442764081E-19  -1.40245912048440E-04   2.67735369547644E-18   1.40245912052313E-04
      1.87252706149445E-17  -1.30076045958165E-17  -2.12447981355075E-17  -4.78841396678445E-17  -2.51181699234201E-19
     -5.87256031389783E-18  -2.12451680902470E-17  -5.87287277667618E-18  -2.12451559813746E-17   0.00000000000000E+00
      4.30663731638216E-17  -1.51866893672918E-18  -5.76049086992216E-19   5.68248185855820E-17  -2.50383722552357E-19
      1.66345501865159E-16  -2.50351242999715E-19  -6.27312122225699E-17  -5.77692907751301E-19  -1.92867778477476E-14
      1.08105149123794E-18
      1.00000000000000E+06
      7.02227128159779E-34  -2.55073820071954E-34   3.71428571428571E-01  -7.84892957367933E-42   2.80243483622414E-04
      1.84520114713282E-17  -2.80243483639043E-04   5.01242614205400E-18  -8.70984185805204E-17  -2.37584271455389E-17
     -4.05562732658714E-17  -2.72604477003207E-19  -2.80243483638088E-04   5.20423589893793E-18   2.80243483638882E-04
      1.91923045737044E-17  -1.42261037722582E-17  -2.37527842278430E-17  -4.35280209968146E-17  -2.72529156901304E-19
     -7.82808133371720E-18  -2.37564036744957E-17  -7.82835181472237E-18  -2.37563136103443E-17   0.00000000000000E+00
      4.80259658203438E-17  -1.23534540940734E-18  -5.13248758329607E-19   6.51558434550577E-15  -2.71311166012430E-19
      6.52955231820315E-15  -2.71274304011282E-19  -1.62716730833742E-16  -5.15877223952703E-19  -7.15094378662641E-14
      1.04565811134868E-18
      1.00000000000000E+06
      2.75642279947132E-34  -1.92004220968313E-34   4.64285714285714E-01   2.71793743062671E-42   4.14134771047032E-04
      1.76466093900624E-17  -4.14134771056909E-04   6.57114525442600E-18  -8.95155995936985E-17  -2.54079795035786E-17
     -3.88798047546135E-17  -2.97617723545481E-19  -4.14134771057327E-04   6.95108081559975E-18   4.14134771058753E-04
      1.85953173336200E-17  -3.19410501584392E-17  -2.54002813184176E-17  -4.21645182701570E-17  -2.97525951324044E-19
     -8.89028869054285E-18  -2.54012711538612E-17  -8.89049773001217E-18  -2.54010789467499E-17   1.48359829598058E-16
      5.12511481191351E-17  -9.70773010348929E-19  -4.48797608594700E-19   9.17123005203233E-15  -2.95934294732158E-19
      9.19456452073764E-15  -2.95891646456929E-19  -2.62640187384100E-17  -4.52202166558584E-19  -2.47760915428758E-14
      1.01446476867608E-18
      1.00000000000000E+06
     -3.16669826478300E-33   2.41067502875934E-33   5.57142857142857E-01   1.64765641631205E-38   5.29122037644976E-04
      1.78681163216804E-17  -5.29122037650810E-04   7.96956764138741E-18   4.49714754781062E-17  -2.64800111386801E-17
     -4.05177325894128E-17  -3.18911906794252E-19  -5.29122037666751E-04   1.15398875229746E-17   5.29122037690078E-04
      2.48271246660773E-17  -2.75382412510541E-16  -2.64253325183446E-17  -1.14256002655495E-17  -3.18537379015548E-19
     -9.42970880563181E-18  -2.64769321776204E-17  -9.42986009563442E-18  -2.64766373937335E-17   0.00000000000000E+00
      5.33483981557652E-17  -7.64579927543743E-19  -3.94829494501633E-19   1.12863400967729E-14  -3.17168192163367E-19
      1.13107342578946E-14  -3.17120733571483E-19   1.08823879987496E-16  -3.98296418933370E-19  -1.78031795517670E-15
      1.02468742792987E-18
      1.00000000000000E+06
     -4.30573494275266E-35   8.20212225514648E-35   6.50000000000000E-01   7.22038407250050E-40   6.26715470746051E-04
      4.75335374861832E-18  -6.26715470600748E-04   8.20965742804191E-19  -7.87180169022932E-17  -2.73242317290883E-17
     -5.09093707829472E-17  -3.34778280707447E-19  -6.26715470618712E-04   1.78886611476052E-18   6.26715470612972E-04
      6.09374327523738E-18   1.56761374404847E-16  -2.73156785521283E-17   1.11821987142413E-18  -3.34677451763254E-19
     -9.70660915598730E-18  -2.72282278577551E-17  -9.70668089614238E-18  -2.72278385479838E-17   1.48359829598058E-16
      5.48102565131496E-17  -6.17976618024592E-19  -3.54189561164090E-19   2.16533498250695E-14  -3.32727516413297E-19
      2.17002735833867E-14  -3.32676313085674E-19   2.23854160774360E-16  -3.57312031909218E-19  -5.45964172920855E-14
      1.00369537650203E-18
}
