DF-ISE text

Info {
  version   = 1.0
  type      = xyplot
  datasets  = [
    "frequency"
    "v(d)" "v(s)" "v(g)" "v(b)" "a(d,d)"
    "c(d,d)" "a(d,s)" "c(d,s)" "a(d,g)" "c(d,g)"
    "a(d,b)" "c(d,b)" "a(s,d)" "c(s,d)" "a(s,s)"
    "c(s,s)" "a(s,g)" "c(s,g)" "a(s,b)" "c(s,b)"
    "a(g,d)" "c(g,d)" "a(g,s)" "c(g,s)" "a(g,g)"
    "c(g,g)" "a(g,b)" "c(g,b)" "a(b,d)" "c(b,d)"
    "a(b,s)" "c(b,s)" "a(b,g)" "c(b,g)" "a(b,b)"
    "c(b,b)" ]
  functions = [
    Frequency
    Voltage Voltage Voltage Voltage Admittance
    Capacitance Admittance Capacitance Admittance Capacitance
    Admittance Capacitance Admittance Capacitance Admittance
    Capacitance Admittance Capacitance Admittance Capacitance
    Admittance Capacitance Admittance Capacitance Admittance
    Capacitance Admittance Capacitance Admittance Capacitance
    Admittance Capacitance Admittance Capacitance Admittance
    Capacitance ]
}

Data {
      1.00000000000000E+06
     -2.17105894432078E-46  -2.11088849728698E-46  -6.50000000000000E-01  -3.15662298190445E-49   0.00000000000000E+00
      1.36384877206745E-17   1.95735265073348E-19  -9.50947736579323E-20  -8.71804473313240E-19  -1.33320292403486E-17
     -2.69612115816774E-18  -2.61313754663361E-19   1.39043690770846E-19  -9.50944672810032E-20   0.00000000000000E+00
      1.36807360964198E-17  -8.69169724738865E-19  -1.33319913418360E-17  -1.94230843726361E-18  -2.61280285208787E-19
     -8.70588561402295E-19  -1.33320626907549E-17  -8.70784880770920E-19  -1.33320370809740E-17   0.00000000000000E+00
      2.76078291959735E-17  -2.66511902854222E-18  -9.43729425209613E-19  -7.66666621781557E-19  -2.61263714579274E-19
     -7.59810394155590E-19  -2.61230817497898E-19  -2.66495278397696E-18  -9.43826686039722E-19   1.48359829598058E-16
      1.46700889874641E-18
      1.00000000000000E+06
      1.18447285028285E-34   2.34355830957762E-34  -5.57142857142857E-01  -1.29510630802008E-35   0.00000000000000E+00
      5.72106090507769E-18  -9.28994731815253E-18  -1.01484493275338E-19   3.76372055915686E-18  -1.35571578326290E-17
      9.97153322691175E-17  -2.50434564642598E-19   1.27270589847475E-18  -1.01363935758956E-19   2.19572547805126E-14
      2.82991176430403E-17   6.12624762382750E-18  -1.35491696391697E-17   1.12483646495323E-17  -2.50185429156931E-19
     -9.84800201187014E-19  -1.35544999059557E-17  -9.84995706023401E-19  -1.35544779455091E-17   0.00000000000000E+00
      2.79951523282975E-17  -2.27486419457753E-18  -8.86174476869515E-19  -6.79932093353685E-19  -2.50282600893630E-19
     -6.64927327711324E-19  -2.50251018582008E-19  -2.26725006249463E-18  -8.86274072729633E-19   0.00000000000000E+00
      1.38612842748902E-18
      1.00000000000000E+06
      1.96945101094750E-33   1.26390479661955E-32  -4.64285714285714E-01   1.97114333094408E-34   0.00000000000000E+00
      1.43178063896211E-17  -9.54836846706157E-18  -1.07790292143051E-19  -1.25741645529682E-18  -1.37758388222158E-17
      2.55767857771060E-18  -2.41509136813367E-19  -8.84627743617225E-18  -1.07790790407078E-19   0.00000000000000E+00
      1.42681515412163E-17  -1.14563315075296E-18  -1.37758177873750E-17  -4.16596050551972E-18  -2.41479024450294E-19
     -1.08452890579520E-18  -1.37759452679069E-17  -1.08474157205925E-18  -1.37759266362310E-17   0.00000000000000E+00
      2.83903546971080E-17  -1.97960256890734E-18  -8.38482790371829E-19  -5.59866282963494E-19  -2.41459364075705E-19
     -5.72461801119079E-19  -2.41429022221890E-19  -1.97103465989205E-18  -8.38583537808541E-19   0.00000000000000E+00
      1.32256894890085E-18
      1.00000000000000E+06
     -1.25970659050673E-34   1.30173787124546E-35  -3.71428571428571E-01  -3.98868879327813E-39   0.00000000000000E+00
      1.44176065662162E-17  -4.11915604983009E-16  -1.14371016762064E-19  -1.21315573440431E-18  -1.40014997294655E-17
      2.21339367348914E-18  -2.34355507824173E-19  -4.10459381012161E-16  -1.14371841816441E-19   0.00000000000000E+00
      1.43014439984787E-17  -1.23796388866027E-18  -1.40015348827003E-17  -2.45145008415752E-18  -2.34327493464959E-19
     -1.17578550732285E-18  -1.40015823590369E-17  -1.17598160289586E-18  -1.40015668510237E-17   0.00000000000000E+00
      2.88010663942610E-17  -1.74955289988728E-18  -7.97917183829120E-19   2.69885744135424E-18  -2.34295497235567E-19
      1.53325407266745E-18  -2.34265847400188E-19  -4.10409789264531E-18  -7.98002793398275E-19   1.48359829598058E-16
      1.28901597546619E-18
      1.00000000000000E+06
      4.24380675372358E-36   1.13566409719710E-35  -2.78571428571429E-01  -4.19038284638902E-39   1.58745017669922E-14
      1.57467176404740E-17  -1.91405620273649E-14  -1.21518256734547E-19  -1.78262485031845E-18  -1.42393292113613E-17
      4.42956339501960E-18  -2.28114955697310E-19  -1.91405218011468E-14  -1.21527556901244E-19   1.52810624486000E-14
      1.46338264295891E-17  -1.60773267028718E-18  -1.42398555799658E-17  -2.87808886376187E-18  -2.28100837032621E-19
     -1.26622315032917E-18  -1.42399490353756E-17  -1.26641992578788E-18  -1.42399366966983E-17   0.00000000000000E+00
      2.92412031588810E-17  -1.55443132768277E-18  -7.61317426888176E-19  -1.85146874387499E-18  -2.28068895128886E-19
     -1.77367869599173E-18  -2.28041108047989E-19  -5.81912333931092E-18  -7.61436188138735E-19   0.00000000000000E+00
      1.21891311343287E-18
      1.00000000000000E+06
     -3.13700907908831E-33  -6.97848219961704E-33  -1.85714285714286E-01   1.65518027186900E-35   8.66718124511857E-13
      1.47926786491884E-17  -8.69682079949748E-13  -1.29727443637229E-19  -1.48052569637066E-18  -1.45023983794968E-17
     -3.28676724175882E-18  -2.22463955532061E-19  -8.69682730076088E-13  -1.29721869763931E-19   8.66421404852661E-13
      1.53151643552255E-17  -1.53890856240823E-18  -1.45020696448226E-17  -1.68733403053733E-18  -2.22429107728642E-19
     -1.36222863196186E-18  -1.45024451697549E-17  -1.36242661449997E-18  -1.45024364527779E-17   0.00000000000000E+00
      2.97318382942086E-17  -1.37817397555841E-18  -7.26956671763115E-19  -5.93046850392312E-19  -2.22393866374511E-19
     -5.33042412873221E-19  -2.22367212393859E-19  -1.77691470896929E-18  -7.27095043536557E-19   1.48359829598058E-16
      1.17171937367783E-18
      1.00000000000000E+06
      8.55238630487112E-36  -1.00493614483735E-35  -9.28571428571429E-02   1.85967628182950E-41   3.82324764472492E-11
      1.52719304475123E-17  -3.82331165633422E-11  -1.39602600559143E-19  -1.26525531210569E-18  -1.48051847739776E-17
     -1.19618328246896E-18  -2.17708234257577E-19  -3.82331163171984E-11  -1.39604945091544E-19   3.82326248070788E-11
      1.50648475375518E-17  -1.33083602517950E-18  -1.48052906718723E-17  -1.50492657480490E-18  -2.17685408771612E-19
     -1.46850820173149E-18  -1.48053018594785E-17  -1.46870978519255E-18  -1.48052977076200E-17   0.00000000000000E+00
      3.03060820007660E-17  -1.22545472427936E-18  -6.95482433748436E-19  -4.65877568579440E-19  -2.17625645762746E-19
     -4.36188630761320E-19  -2.17599768186223E-19  -1.25331219118160E-18  -6.95650445617708E-19   0.00000000000000E+00
      1.13104572275241E-18
      1.00000000000000E+06
      1.86868109185183E-35  -4.47685973465807E-35  -5.42101086242752E-20  -1.91049224561834E-41   1.60714079000314E-09
      1.52955442197828E-17  -1.60714307963145E-09  -1.52443059279723E-19  -2.15569537780960E-18  -1.51771108429651E-17
     -1.09592130276572E-18  -2.14402348954768E-19  -1.60714308042586E-09  -1.52438900116026E-19   1.60714316376041E-09
      1.56211067634136E-17  -2.07516769249667E-18  -1.51769619600663E-17   1.52963471671555E-18  -2.14371623697025E-19
     -1.59418843416602E-18  -1.51771309964160E-17  -1.59439581918384E-18  -1.51771330041324E-17   0.00000000000000E+00
      3.10220947259443E-17  -1.10440718416109E-18  -6.67830725235062E-19  -4.01593701887707E-19  -2.14288944418459E-19
     -4.02404758588304E-19  -2.14263527244841E-19  -1.09809925082854E-18  -6.68049356124301E-19   1.48359829598058E-16
      1.09692423117013E-18
      1.00000000000000E+06
     -3.79179085113522E-35  -1.36303214327686E-34   9.28571428571429E-02  -5.94699329758898E-42   6.30871012274039E-08
      1.59675065945794E-17  -6.30871033179849E-08  -1.71042278164089E-19  -2.13660529279847E-18  -1.56863738611410E-17
      3.51656649307843E-20  -2.12652526165622E-19  -6.30871033151725E-08  -1.70966082481971E-19   6.30871040462407E-08
      1.72010456833520E-17  -2.88351494631942E-18  -1.56852263937415E-17   8.57188363521195E-19  -2.12602198404854E-19
     -1.76881244083053E-18  -1.56864594465768E-17  -1.76904770797188E-18  -1.56864704331287E-17   0.00000000000000E+00
      3.20159770081985E-17  -1.00988483457755E-18  -6.43047128645487E-19   1.75096748190137E-20  -2.12496495796981E-19
      1.11459113051053E-18  -2.12471282955411E-19  -9.95106560030972E-19  -6.43356999017803E-19   0.00000000000000E+00
      1.06721704701495E-18
      1.00000000000000E+06
     -5.04235832322198E-34  -4.94491500298589E-34   1.85714285714286E-01  -5.71444336682564E-40   2.15291446979295E-06
      1.85059298340323E-17  -2.15291446792218E-06  -1.68372083056390E-19  -5.42303403130202E-18  -1.65968847942029E-17
     -7.76816771288604E-20  -2.12469936038880E-19  -2.15291446790668E-06  -1.69079707514591E-19   2.15291446697411E-06
      1.80949549849660E-17  -4.63591027969855E-18  -1.65972256553504E-17   1.10831661883371E-18  -2.12457911996180E-19
     -2.14429567022360E-18  -1.65992523274470E-17  -2.14456497930207E-18  -1.65992774356888E-17   0.00000000000000E+00
      3.38167401831612E-17  -9.25564803428935E-19  -6.18210426373798E-19   1.64369735455650E-17  -2.12266838882116E-19
      4.07855199902368E-17  -2.12241638561107E-19  -6.44483905383689E-19  -6.18687510272129E-19   0.00000000000000E+00
      1.04515476169629E-18
      1.00000000000000E+06
     -4.85002919278512E-35   6.52986810111890E-35   2.78571428571429E-01  -2.58422045660837E-40   4.35554686061505E-05
      1.91470499234402E-17  -4.35554686144181E-05   6.63785684138573E-19  -4.14142055282880E-17  -1.92195624861469E-17
      1.11231880925775E-18  -2.15761276370713E-19  -4.35554686121634E-05   7.01709904352534E-19   4.35554686077825E-05
      2.05286787389672E-17  -1.10680277575315E-17  -1.92163855916247E-17  -9.27876277501043E-19  -2.15702379037300E-19
     -3.88837210485129E-18  -1.92208020076611E-17  -3.88869161690739E-18  -1.92208344690042E-17   0.00000000000000E+00
      3.90288792512010E-17  -8.27267243704156E-19  -5.87242771094588E-19   2.19895231448473E-17  -2.15342937391811E-19
      1.24745287569478E-17  -2.15316672086116E-19   4.07609521119263E-19  -5.88097628058177E-19   0.00000000000000E+00
      1.01941929623545E-18
      1.00000000000000E+06
      3.40448130504770E-33   1.08899436398715E-33   3.71428571428571E-01   1.24162954496468E-38   2.19163697008721E-04
      9.25476318006794E-18  -2.19163697007804E-04   2.22369195388369E-18   8.15311033874996E-17  -2.32747145578427E-17
      7.04153605921238E-18  -2.27848712485394E-19  -2.19163696988625E-04  -4.91971738253087E-18   2.19163697018216E-04
     -3.84316107083260E-17  -1.13289601273479E-16  -2.34493901720251E-17   1.97887966686703E-17  -2.29194955527376E-19
     -6.92567533203319E-18  -2.32391471198626E-17  -6.92596535297563E-18  -2.32390913602615E-17   0.00000000000000E+00
      4.70181760542762E-17  -6.88505815259598E-19  -5.39937783281268E-19  -9.07509033304016E-17  -2.26611578967923E-19
     -2.49216956617256E-16  -2.26579774561103E-19  -2.90446623896580E-18  -5.41824558405900E-19   0.00000000000000E+00
      9.90493248297503E-19
      1.00000000000000E+06
     -9.36530364988184E-36  -1.06286093722612E-35   4.64285714285714E-01   2.19553515845557E-40   4.23830849874037E-04
      2.93035026148057E-17  -4.23830849850207E-04   9.92923560618975E-18   1.67069305530003E-16  -2.54306928368395E-17
      2.04232164482560E-17  -2.50236958172177E-19  -4.23830849852453E-04   4.35356371153742E-18   4.23830849874037E-04
      1.20036497433917E-17   8.44274839878858E-17  -2.55009851117824E-17  -1.23264793364616E-18  -2.50691395812931E-19
     -8.11269235910916E-18  -2.54731440073877E-17  -8.11286251170364E-18  -2.54729171176343E-17   0.00000000000000E+00
      5.14201349040013E-17  -5.17139353186214E-19  -4.74075071355932E-19   1.98127389796570E-15  -2.48391281021899E-19
      2.04883288970780E-15  -2.48350931777134E-19   1.23136161888354E-17  -4.78328337984082E-19   0.00000000000000E+00
      9.75460509812171E-19
      1.00000000000000E+06
      2.64537354805291E-36   2.83643126189957E-34   5.57142857142857E-01   8.65307044698856E-38   5.92610565635648E-04
      5.94745326134353E-18  -5.92610565616364E-04   2.18520891010272E-18  -1.35544001914223E-17  -2.67792976288810E-17
      1.48717212199569E-18  -2.80935696844294E-19  -5.92610565586721E-04  -9.74156817240028E-19   5.92610565647814E-04
     -1.72730560145305E-18   8.34600009098573E-17  -2.68166896899191E-17   1.99322663312739E-18  -2.81160692783385E-19
     -8.60655825158110E-18  -2.67274200564327E-17  -8.60669289102605E-18  -2.67270160014159E-17   0.00000000000000E+00
      5.38548138730749E-17  -3.43687222302400E-19  -4.00375881014979E-19  -5.62681765010212E-17  -2.77439812069775E-19
     -1.95419822262349E-17  -2.77391025338720E-19   1.78899481305492E-18  -4.06542671965403E-19   0.00000000000000E+00
      9.58775644768833E-19
      1.00000000000000E+06
      1.59920013027637E-35   4.88389439020403E-36   6.50000000000000E-01   1.81334057047402E-39   7.28280434694189E-04
      1.37173602762991E-17  -7.28280434721928E-04   6.59158271704948E-18   7.43967731027803E-16  -2.75297105765525E-17
      5.25122575396455E-18  -3.01829462510152E-19  -7.28280434731426E-04   1.04387588256262E-17   7.28280434751604E-04
      2.02787623550096E-17   1.43231137962912E-17  -2.75026688885500E-17  -1.59690722444511E-18  -3.01639588764727E-19
     -8.80156183588306E-18  -2.75136465298684E-17  -8.80156958838218E-18  -2.75130867245119E-17   0.00000000000000E+00
      5.53742789974371E-17  -2.32943808579408E-19  -3.47545479047728E-19  -2.75038561729730E-16  -2.98803572191916E-19
     -2.93898046827216E-16  -2.98747551500940E-19  -3.61331044893894E-18  -3.53408343940326E-19   0.00000000000000E+00
      9.49696331235652E-19
}
