DF-ISE text

Info {
  version   = 1.0
  type      = xyplot
  datasets  = [
    "frequency"
    "v(d)" "v(s)" "v(g)" "v(b)" "a(d,d)"
    "c(d,d)" "a(d,s)" "c(d,s)" "a(d,g)" "c(d,g)"
    "a(d,b)" "c(d,b)" "a(s,d)" "c(s,d)" "a(s,s)"
    "c(s,s)" "a(s,g)" "c(s,g)" "a(s,b)" "c(s,b)"
    "a(g,d)" "c(g,d)" "a(g,s)" "c(g,s)" "a(g,g)"
    "c(g,g)" "a(g,b)" "c(g,b)" "a(b,d)" "c(b,d)"
    "a(b,s)" "c(b,s)" "a(b,g)" "c(b,g)" "a(b,b)"
    "c(b,b)" ]
  functions = [
    Frequency
    Voltage Voltage Voltage Voltage Admittance
    Capacitance Admittance Capacitance Admittance Capacitance
    Admittance Capacitance Admittance Capacitance Admittance
    Capacitance Admittance Capacitance Admittance Capacitance
    Admittance Capacitance Admittance Capacitance Admittance
    Capacitance Admittance Capacitance Admittance Capacitance
    Admittance Capacitance Admittance Capacitance Admittance
    Capacitance ]
}

Data {
      1.00000000000000E+06
      1.38984746628513E-45  -7.11232960008493E-46   6.50000000000000E-01   1.25490835114599E-48   2.73575525778820E-13
      1.45833618648323E-17  -2.63006796431223E-13  -3.00728730043347E-20   3.89356470091189E-16  -1.25124497629658E-17
     -1.02458630827252E-14  -1.82220510333918E-18  -2.63017775915662E-13  -3.00740502080566E-20   2.74614044586006E-13
      1.42188196503919E-17   2.77154750994073E-16  -1.25123795814431E-17  -1.30093021441816E-14  -1.82227711798910E-18
      2.74893946661796E-16  -1.25123449960286E-17   2.74899691840546E-16  -1.25118712620272E-17   0.00000000000000E+00
      4.14422809231838E-17  -3.33024681076381E-15  -1.64180645714608E-17  -1.29325586148479E-14  -1.82258256277716E-18
     -1.29344529928955E-14  -1.82258083739505E-18  -3.33784898930471E-15  -1.64174357981952E-17   2.26990539285029E-14
      2.00614429597028E-17
      1.00000000000000E+06
     -1.17169754434117E-34   5.84583048633689E-34   5.57142857142857E-01  -1.96110975105346E-34   9.69531486423312E-13
      1.45607675531492E-17  -9.57522449610604E-13  -7.39053955524644E-20   9.69259161771058E-17  -1.34120004735959E-17
     -1.30032690946528E-14  -1.01345685933642E-18  -9.57522684965097E-13  -7.39056336009614E-20   9.68344607786527E-13
      1.45287520048209E-17   9.14532961303925E-17  -1.34115513269061E-17  -1.31060445560986E-14  -1.01343778301612E-18
      9.69555632038655E-17  -1.34119087033908E-17   9.69582495001156E-17  -1.34114282946617E-17   0.00000000000000E+00
      3.44776649427309E-17  -1.16636127484783E-15  -7.65432795316270E-18  -1.29982665795126E-14  -1.01362251167873E-18
     -1.29995609525524E-14  -1.01360038059492E-18  -1.16649365895409E-15  -7.65401338655698E-18   2.03252966549340E-14
      9.68113575640865E-18
      1.00000000000000E+06
      4.92167709935616E-37   4.03268933137425E-37   4.64285714285714E-01   5.92857610631283E-37   6.67040629855830E-12
      1.49479172580378E-17  -6.65906105758341E-12  -1.09452548709194E-19   2.32130051381926E-17  -1.40651011907517E-17
     -1.31203466549886E-14  -5.35458409214319E-19  -6.65906145256270E-12  -1.09454903262413E-19   6.66966449941031E-12
      1.47610929146970E-17   1.95327348591274E-17  -1.40648252359383E-17  -1.31817892849850E-14  -5.35435293180278E-19
      1.47817182319083E-17  -1.40655610264978E-17   1.47820635477852E-17  -1.40650655216190E-17   0.00000000000000E+00
      3.07041294562099E-17  -1.70880542528469E-16  -2.57350288728916E-18  -1.32322980459618E-14  -5.35299074278569E-19
     -1.32332965062885E-14  -5.35264743619436E-19  -1.70398532870706E-16  -2.57385345909791E-18   2.03252966549340E-14
      3.64429255384596E-18
      1.00000000000000E+06
     -2.09614271049332E-34  -1.28728394647610E-34   3.71428571428571E-01   2.86411589679795E-36   5.81055723415684E-11
      1.48612509885329E-17  -5.80920383299139E-11  -1.26022526517991E-19  -6.65560827081822E-19  -1.44466840815129E-17
     -1.36209816078469E-14  -4.10618790850127E-19  -5.80920379150096E-11  -1.26018132992976E-19   5.81052756219092E-11
      1.51540943634481E-17  -3.87098342331644E-19  -1.44457738584987E-17  -1.35822356914387E-14  -4.10566371767877E-19
      2.06263947249723E-18  -1.44468932619482E-17   2.06259930629743E-18  -1.44463692893694E-17   1.48359829598058E-16
      3.03288136706559E-17  -2.57592182180290E-17  -1.43555112578224E-18  -1.36019103530578E-14  -4.10253635595366E-19
     -1.36027114903389E-14  -4.10218629343504E-19  -2.57430027487545E-17  -1.43626836514687E-18   2.03252966549340E-14
      2.25660635249815E-18
      1.00000000000000E+06
      2.19503553348804E-35   3.23146851100719E-35   2.78571428571429E-01  -1.29063920993253E-38   5.18301592533319E-10
      1.54135185615308E-17  -5.18286171021125E-10  -1.38575220726717E-19  -1.09576144355591E-19  -1.47844690085611E-17
     -1.40635166302324E-14  -3.71085940685558E-19  -5.18286173682761E-10  -1.38576629429932E-19   5.18297735177750E-10
      1.53300963708647E-17  -3.58693249194763E-18  -1.47840136738481E-17  -1.40384494788820E-14  -3.71055299843682E-19
      3.42848811410423E-19  -1.47850533811289E-17   3.42808226998533E-19  -1.47844946725740E-17   0.00000000000000E+00
      3.07440995627869E-17  -9.75103909204450E-18  -1.17455151059538E-18  -1.40228374522176E-14  -3.70661961236915E-19
     -1.40234807942359E-14  -3.70627866537906E-19  -9.95364046507127E-18  -1.17541023885021E-18   2.03252966549340E-14
      1.91672557997770E-18
      1.00000000000000E+06
     -1.23800528307091E-31  -4.86986822249366E-33   1.85714285714286E-01  -1.97638667529425E-35   4.55249466097224E-09
      1.56898696511288E-17  -4.55248142703908E-09  -1.51844053831808E-19  -9.69682850469980E-19  -1.51484532265661E-17
     -1.44674866106328E-14  -3.49513674306182E-19  -4.55248142799242E-09  -1.51844651887658E-19   4.55249406753293E-09
      1.56653241719959E-17  -1.25166120372009E-18  -1.51478864286939E-17  -1.44669599040444E-14  -3.49481170135705E-19
     -1.50827967501149E-19  -1.51490006273332E-17  -1.50837608810112E-19  -1.51483998582078E-17   1.48359829598058E-16
      3.13566557721546E-17  -6.84433848166608E-18  -1.05925528783046E-18  -1.44707213253713E-14  -3.49025804478371E-19
     -1.44712587625632E-14  -3.48992413857234E-19  -4.35547289379930E-18  -1.06023399714410E-18   2.35892129060913E-14
      1.75838847576951E-18
      1.00000000000000E+06
      6.57030411171498E-33   3.03996706570695E-33   9.28571428571429E-02   3.10156100191367E-36   3.89047682732737E-08
      1.62838504894221E-17  -3.89047501595301E-08  -1.67371912917917E-19   4.85993300135021E-18  -1.55730559682027E-17
     -1.49521351384395E-14  -3.34466752735926E-19  -3.89047501591802E-08  -1.67380355679176E-19   3.89047657511566E-08
      1.61277254732409E-17  -1.05784268266178E-18  -1.55726247213550E-17  -1.49389475075171E-14  -3.34440294247782E-19
     -4.76720112998351E-19  -1.55739379397530E-17  -4.76693305749858E-19  -1.55732834853741E-17   0.00000000000000E+00
      3.21267357156962E-17  -5.60443598130059E-18  -9.79514289694665E-19  -1.49404820648194E-14  -3.33903568693829E-19
     -1.49409531626135E-14  -3.33870761575964E-19  -3.53054484328260E-18  -9.80657601487269E-19   2.52211710316699E-14
      1.64854022512773E-18
      1.00000000000000E+06
     -1.17917096161765E-32  -5.42853746346595E-33   5.42101086242752E-20  -7.50515014363167E-37   3.18665946624586E-07
      1.66069609985144E-17  -3.18665932289117E-07  -1.83208256978020E-19  -6.94855937929646E-19  -1.61223723072055E-17
     -1.54450255047634E-14  -3.23602169089511E-19  -3.18665932286885E-07  -1.83257785953591E-19   3.18665951965540E-07
      1.64281766223857E-17   6.69638303618734E-19  -1.61219883043452E-17  -1.54257793842422E-14  -3.23575663282339E-19
     -8.05369763322091E-19  -1.61230316163114E-17  -8.05297148143347E-19  -1.61223053160175E-17   0.00000000000000E+00
      3.31595642795280E-17  -4.76237917527348E-18  -9.14227347164849E-19  -1.54291972225327E-14  -3.22905550635755E-19
     -1.54293165656722E-14  -3.22873323611077E-19  -5.91834263116101E-18  -9.15618372046479E-19   2.43310120540816E-14
      1.56137676986600E-18
      1.00000000000000E+06
     -9.14208725057933E-33   7.04064146556521E-33  -9.28571428571429E-02  -1.30408116794601E-36   2.41227570349927E-06
      1.73872207725531E-17  -2.41227568642478E-06  -1.61978292186223E-19  -1.47819527140463E-18  -1.69740196476616E-17
     -1.59443807937697E-14  -3.16654728811540E-19  -2.41227568642403E-06  -1.61584316013083E-19   2.41227570290583E-06
      1.75955847339226E-17  -1.12153082351270E-18  -1.69727320826197E-17  -1.59429173903134E-14  -3.16614729152264E-19
     -1.31740685619745E-18  -1.69747796470830E-17  -1.31726706106956E-18  -1.69739532557764E-17   0.00000000000000E+00
      3.48046554397589E-17  -4.10046332056018E-18  -8.55922536732826E-19  -1.59312735193176E-14  -3.15756940733860E-19
     -1.59314780628240E-14  -3.15725387744297E-19  -3.98226852812218E-18  -8.57712093317267E-19   2.52211710316699E-14
      1.48915829451481E-18
      1.00000000000000E+06
      6.98537621494685E-37  -6.38461288676576E-38  -1.85714285714286E-01  -4.36525755390028E-42   1.51326334972672E-05
      1.87890608933182E-17  -1.51326334812957E-05   1.63283077420623E-19  -3.91949137410496E-18  -1.86337532130352E-17
     -1.64418646906300E-14  -3.15165365970774E-19  -1.51326334812991E-05   1.63438180232636E-19   1.51326334963770E-05
      1.88018040618903E-17  -4.58817484371035E-18  -1.86327464740820E-17  -1.64413962488429E-14  -3.15133699162014E-19
     -2.66096634818570E-18  -1.86350154803143E-17  -2.66071221206724E-18  -1.86340485679505E-17   0.00000000000000E+00
      3.80672768440509E-17  -3.53336878105090E-18  -7.98212796097907E-19  -1.64425290132626E-14  -3.13912361920631E-19
     -1.64424487726179E-14  -3.13881432159467E-19  -3.62270504798105E-18  -8.00719013989402E-19   2.52211710316699E-14
      1.42848779497491E-18
      1.00000000000000E+06
     -4.12855104631612E-34  -3.10446386613055E-34  -2.78571428571429E-01  -9.31746084015284E-40   6.23221478517419E-05
      2.07452954566821E-17  -6.23221478268459E-05   1.48801767062354E-18   7.42811580513484E-17  -2.15835078376591E-17
     -1.69084288946878E-14  -3.22708812796661E-19  -6.23221478260743E-05   1.46326831050332E-18   6.23221478782983E-05
      2.02251886248381E-17   1.36491140503598E-16  -2.15844730226593E-17  -1.68745629997126E-14  -3.22704448828014E-19
     -5.71610313211283E-18  -2.15866712905049E-17  -5.71567403220681E-18  -2.15855405028394E-17   0.00000000000000E+00
      4.39050209942088E-17  -2.99333689131616E-18  -7.32809198996632E-19  -1.69446248871082E-14  -3.20777581543454E-19
     -1.69448909590415E-14  -3.20746546864024E-19  -2.40379137385832E-18  -7.36703738986631E-19   2.67047693276505E-14
      1.37848134275873E-18
      1.00000000000000E+06
     -8.41853073409911E-36  -1.30892084985254E-35  -3.71428571428571E-01   7.40864372190084E-42   1.50831882344402E-04
      2.18493600302997E-17  -1.50831882327739E-04   3.59385092819653E-18  -2.09698344216024E-17  -2.46801441591742E-17
     -1.74185607494812E-14  -3.40416214178894E-19  -1.50831882327820E-04   3.60815685727081E-18   1.50831882343363E-04
      2.19680230133642E-17  -6.71475156061002E-18  -2.46780941526653E-17  -1.74278940035307E-14  -3.40379215268848E-19
     -8.70951225366853E-18  -2.46853101142541E-17  -8.70894154348422E-18  -2.46840685052099E-17   1.48359829598058E-16
      5.00267586607822E-17  -2.46194823762505E-18  -6.57380049902264E-19  -1.74168164880867E-14  -3.37313507197295E-19
     -1.74155300406426E-14  -3.37280890151231E-19  -1.23418621889833E-18  -6.63629860343276E-19   2.75949283052389E-14
      1.33794128025540E-18
      1.00000000000000E+06
     -2.51901434931841E-36  -1.98446879455880E-37  -4.64285714285714E-01   5.20975588705274E-43   2.55422836155244E-04
      2.19243526602716E-17  -2.55422836129373E-04   5.49108648526529E-18  -2.19404808704124E-18  -2.69458527406865E-17
     -1.79375134366666E-14  -3.63989372632587E-19  -2.55422836129422E-04   5.88379304531765E-18   2.55422836152870E-04
      2.38498495029926E-17   1.09122522815173E-17  -2.69317375852074E-17  -1.79455815318474E-14  -3.63854267209869E-19
     -1.03090446815026E-17  -2.69509015796489E-17  -1.03084256596553E-17  -2.69496303560488E-17   0.00000000000000E+00
      5.44803160028378E-17  -1.97839736106848E-18  -5.79784000790557E-19  -1.78805569089222E-14  -3.59482945488678E-19
     -1.78809585516045E-14  -3.59447824533001E-19  -3.19220987903248E-18  -5.88811731743263E-19   2.96719659196117E-14
      1.30619719677081E-18
      1.00000000000000E+06
      4.19320910088221E-35  -1.40092997632532E-35  -5.57142857142857E-01  -1.43750380699979E-38   3.59028578744680E-04
      2.08996101107168E-17  -3.59028578710546E-04   6.71955702018163E-18   1.28220546104239E-17  -2.85384830521985E-17
     -1.83875262706186E-14  -3.87766372403152E-19  -3.59028578712107E-04   6.81230944451033E-18   3.59028578730883E-04
      2.12043702541966E-17  -3.82880248947378E-18  -2.85354848223992E-17  -1.84082401425226E-14  -3.87707480598126E-19
     -1.10690316986908E-17  -2.85372892333656E-17  -1.10684274944875E-17  -2.85360398386073E-17   0.00000000000000E+00
      5.75826696208535E-17  -1.57859738894788E-18  -5.09340385897570E-19  -1.82831402900167E-14  -3.82252658284510E-19
     -1.82813407589898E-14  -3.82214787274534E-19  -1.32556049334336E-18  -5.20260298654063E-19   2.96719659196117E-14
      1.28434536231643E-18
      1.00000000000000E+06
      1.59115048349364E-36   9.61410181290301E-38  -6.50000000000000E-01   2.40461948171858E-40   4.56356946162061E-04
      1.88645007012992E-17  -4.56356946103698E-04   7.10483125085546E-18   2.35487701168927E-16  -2.97090280621399E-17
     -1.88940732477666E-14  -4.07654405439370E-19  -4.56356946114106E-04   6.86356835478961E-18   4.56356946139213E-04
      1.81646245863973E-17   1.37636186565156E-16  -2.97133441597047E-17  -1.87590757518241E-14  -4.07623934844438E-19
     -1.14264673022644E-17  -2.96939349487550E-17  -1.14258682516791E-17  -2.96927304276492E-17   0.00000000000000E+00
      5.98383435179397E-17  -1.27471443819298E-18  -4.51678057523210E-19  -1.87179125157692E-14  -4.01901135773165E-19
     -1.87176532877619E-14  -4.01860636275900E-19  -1.37159968160188E-18  -4.62932520943690E-19   2.99686855788078E-14
      1.26631384808244E-18
}
