DF-ISE text

Info {
  version   = 1.0
  type      = xyplot
  datasets  = [
    "ndrain OuterVoltage" "ndrain TotalCurrent" "nsource OuterVoltage" "nsource TotalCurrent" "substrate OuterVoltage" "ngate OuterVoltage" ]
  functions  = [
    OuterVoltage TotalCurrent OuterVoltage TotalCurrent OuterVoltage OuterVoltage ]
}

Data {
0.05 1.54282718934e-16 0.0 -1.54301856507e-16 0.0 -0.3
0.05 9.95179624722e-15 0.0 -9.95162139298e-15 0.0 -0.2
0.05 6.27106837833e-13 0.0 -6.2709233879e-13 0.0 -0.1
0.05 3.8301025182e-11 0.0 -3.83001295096e-11 0.0 0
0.05 2.22103255862e-9 0.0 -2.22097622438e-9 0.0 0.1
0.05 1.15186792753e-7 0.0 -1.15183067427e-7 0.0 0.2
0.05 3.12450752413e-6 0.0 -3.12431036031e-6 0.0 0.3
0.05 1.67383719156e-5 0.0 -1.67364939592e-5 0.0 0.4
0.05 3.67130888243e-5 0.0 -3.67095043135e-5 0.0 0.5
0.05 5.48258948757e-5 0.0 -5.48237685322e-5 0.0 0.6
0.05 6.1977299434e-5 0.0 -6.19761537514e-5 0.0 0.65
}
