DF-ISE text

Info {
  version   = 1.0
  type      = xyplot
  datasets  = [
    "ndrain OuterVoltage" "ndrain TotalCurrent" "nsource OuterVoltage" "nsource TotalCurrent" "substrate OuterVoltage" "ngate OuterVoltage" ]
  functions  = [
    OuterVoltage TotalCurrent OuterVoltage TotalCurrent OuterVoltage OuterVoltage ]
}

Data {
0.65 1.00144425113e-15 0.0 -1.00143284789e-15 0.0 -0.3
0.65 6.55956327731e-14 0.0 -6.55939207785e-14 0.0 -0.2
0.65 4.12642342397e-12 0.0 -4.12633911351e-12 0.0 -0.1
0.65 2.45425833208e-10 0.0 -2.45422160904e-10 0.0 0
0.65 1.32995549883e-8 0.0 -1.3299398514e-8 0.0 0.1
0.65 5.50922760264e-7 0.0 -5.50912490835e-7 0.0 0.2
0.65 7.3440367564e-6 0.0 -7.34355339206e-6 0.0 0.3
0.65 2.48820900931e-5 0.0 -2.48783407939e-5 0.0 0.4
0.65 4.79164874006e-5 0.0 -4.79054788413e-5 0.0 0.5
0.65 7.3363945629e-5 0.0 -7.33408662678e-5 0.0 0.6
0.65 8.65932624019e-5 0.0 -8.65636199338e-5 0.0 0.65
}
