DF-ISE text

Info {
  version   = 1.0
  type      = xyplot
  datasets  = [
    "ndrain OuterVoltage" "ndrain TotalCurrent" "nsource OuterVoltage" "nsource TotalCurrent" "substrate OuterVoltage" "ngate OuterVoltage" ]
  functions  = [
    OuterVoltage TotalCurrent OuterVoltage TotalCurrent OuterVoltage OuterVoltage ]
}

Data {
0.05 1.63247070318e-11 0.0 -1.63229488873e-11 0.0 -0.3
0.05 1.83979380728e-10 0.0 -1.83960323922e-10 0.0 -0.2
0.05 2.02863164829e-9 0.0 -2.02842473285e-9 0.0 -0.1
0.05 2.16124962935e-8 0.0 -2.16102524334e-8 0.0 0
0.05 2.13267669487e-7 0.0 -2.13243975543e-7 0.0 0.1
0.05 1.65267693335e-6 0.0 -1.65246181337e-6 0.0 0.2
0.05 7.23130543704e-6 0.0 -7.23020853088e-6 0.0 0.3
0.05 1.74317946306e-5 0.0 -1.74296708315e-5 0.0 0.4
0.05 2.88684423312e-5 0.0 -2.88668555493e-5 0.0 0.5
0.05 3.86735183163e-5 0.0 -3.86730730301e-5 0.0 0.6
0.05 4.27756871799e-5 0.0 -4.27757148206e-5 0.0 0.65
}
