DF-ISE text

Info {
  version   = 1.0
  type      = xyplot
  datasets  = [
    "ndrain OuterVoltage" "ndrain TotalCurrent" "nsource OuterVoltage" "nsource TotalCurrent" "substrate OuterVoltage" "ngate OuterVoltage" ]
  functions  = [
    OuterVoltage TotalCurrent OuterVoltage TotalCurrent OuterVoltage OuterVoltage ]
}

Data {
0.65 4.52558632085e-11 0.0 -4.52500449703e-11 0.0 -0.3
0.65 5.19082016908e-10 0.0 -5.19021084426e-10 0.0 -0.2
0.65 5.7795648063e-9 0.0 -5.77894827985e-9 0.0 -0.1
0.65 6.10768415211e-8 0.0 -6.10707810956e-8 0.0 0
0.65 5.62696000509e-7 0.0 -5.62638697615e-7 0.0 0.1
0.65 3.47364154472e-6 0.0 -3.47319755061e-6 0.0 0.2
0.65 1.14337566495e-5 0.0 -1.14318120913e-5 0.0 0.3
0.65 2.37294115107e-5 0.0 -2.37240625689e-5 0.0 0.4
0.65 3.86562457131e-5 0.0 -3.86447145629e-5 0.0 0.5
0.65 5.5129995414e-5 0.0 -5.51119122199e-5 0.0 0.6
0.65 6.37665778471e-5 0.0 -6.37455243193e-5 0.0 0.65
}
