DF-ISE text

Info {
  version   = 1.0
  type      = xyplot
  datasets  = [
    "frequency"
    "v(d)" "v(s)" "v(g)" "v(b)" "a(d,d)"
    "c(d,d)" "a(d,s)" "c(d,s)" "a(d,g)" "c(d,g)"
    "a(d,b)" "c(d,b)" "a(s,d)" "c(s,d)" "a(s,s)"
    "c(s,s)" "a(s,g)" "c(s,g)" "a(s,b)" "c(s,b)"
    "a(g,d)" "c(g,d)" "a(g,s)" "c(g,s)" "a(g,g)"
    "c(g,g)" "a(g,b)" "c(g,b)" "a(b,d)" "c(b,d)"
    "a(b,s)" "c(b,s)" "a(b,g)" "c(b,g)" "a(b,b)"
    "c(b,b)" ]
  functions = [
    Frequency
    Voltage Voltage Voltage Voltage Admittance
    Capacitance Admittance Capacitance Admittance Capacitance
    Admittance Capacitance Admittance Capacitance Admittance
    Capacitance Admittance Capacitance Admittance Capacitance
    Admittance Capacitance Admittance Capacitance Admittance
    Capacitance Admittance Capacitance Admittance Capacitance
    Admittance Capacitance Admittance Capacitance Admittance
    Capacitance ]
}

Data {
      1.00000000000000E+06
     -1.98770707635224E-47  -8.84861671394218E-47  -9.75000000000000E-01  -1.32197666191362E-49   1.48359829598058E-16
      1.05127002795170E-17   8.99498609836375E-19  -7.49034281067708E-22   3.14059784713099E-17  -1.00601830877711E-17
     -6.73602655059262E-16  -4.82426892144326E-19   3.47349185726057E-18  -7.49038976922847E-22   0.00000000000000E+00
      1.04534593948063E-17   2.61012990313681E-16  -1.00602059892980E-17   3.52190275327516E-15  -4.82400304380535E-19
      6.55656659931533E-17  -1.00598666164409E-17   6.55622141689550E-17  -1.00598138462357E-17   1.48359829598058E-16
      3.93917562295927E-17  -3.47055930049637E-15  -1.92720790045225E-17  -6.97308069263834E-17  -4.82686584251965E-19
     -6.96167718661518E-17  -4.82655784680530E-19  -3.43787259000998E-15  -1.92715551354377E-17   0.00000000000000E+00
      2.02368285307722E-17
      1.00000000000000E+06
      5.96896631278434E-39   3.78999985440605E-38  -8.35714285714286E-01  -6.14828774303290E-37   0.00000000000000E+00
      1.08141479750585E-17   1.78351556122194E-19  -2.52737190402743E-21   1.29952930986387E-18  -1.05777224230151E-17
      5.74703619411798E-19  -2.18163829064977E-19   1.24135779235649E-19  -2.52738363288358E-21   0.00000000000000E+00
      1.07819105822869E-17   1.40189980171887E-18  -1.05777240350300E-17   9.72282712910522E-18  -2.18141312542714E-19
      1.60732820709011E-18  -1.05776602038737E-17   1.60685338042103E-18  -1.05776103774869E-17   0.00000000000000E+00
      2.37365407157679E-17  -8.49458205114430E-17  -2.58127014027179E-18  -3.77227116635478E-18  -2.18255182114374E-19
     -3.74259496122930E-18  -2.18231930385023E-19  -8.46308092445155E-17  -2.58109527415894E-18   1.48359829598058E-16
      3.01710031620001E-18
      1.00000000000000E+06
     -1.63440276013759E-35  -1.39252559152601E-34  -6.96428571428571E-01   6.75211797273297E-35   0.00000000000000E+00
      1.10516517451733E-17   9.25694205848174E-20  -4.48267595593970E-21  -1.63128071456421E-18  -1.08794871980161E-17
     -5.56158821136621E-18  -1.67113585664099E-19   6.17117534664149E-20  -4.48265710755712E-21   0.00000000000000E+00
      1.10858230964975E-17  -1.31065323073789E-18  -1.08793890336279E-17  -2.20082879678870E-18  -1.67093647182663E-19
     -1.05863874209113E-18  -1.08795615052499E-17  -1.05891415395287E-18  -1.08795168059665E-17   0.00000000000000E+00
      2.29051401372255E-17  -7.02463911089027E-18  -1.14606182416910E-18  -9.31183080899565E-19  -1.67040395104929E-19
     -9.17381202401580E-19  -1.67021054168485E-19  -6.66841755777142E-18  -1.14620915547930E-18   0.00000000000000E+00
      1.48008379055883E-18
      1.00000000000000E+06
     -2.48503089894923E-34   4.39108577937153E-33  -5.57142857142857E-01  -5.54548946239824E-35   0.00000000000000E+00
      1.13668913536796E-17  -4.04540047200488E-18  -6.18450870413313E-21  -1.45582397542515E-18  -1.12047565384913E-17
      4.69358989236900E-19  -1.48113102213433E-19  -4.07013481919101E-18  -6.18450651600148E-21   0.00000000000000E+00
      1.13700603614056E-17  -1.48653070615176E-18  -1.12047167473025E-17  -1.65611720002720E-19  -1.48095423965621E-19
     -1.44089890846243E-18  -1.12048464314908E-17  -1.44116288605890E-18  -1.12048089386722E-17   0.00000000000000E+00
      2.33499779457935E-17  -4.04264632875195E-18  -9.40322576122140E-19  -6.62978999622301E-19  -1.48035386241938E-19
     -6.61998386174737E-19  -1.48017773411022E-19  -4.05024754182578E-18  -9.40478069012148E-19   0.00000000000000E+00
      1.23658697191093E-18
      1.00000000000000E+06
      9.81306227139563E-34   3.84129449499851E-34  -4.17857142857143E-01   4.53841126198517E-36   0.00000000000000E+00
      1.17735124698386E-17  -6.98272510033548E-16  -7.82084138626536E-21  -1.61505648773979E-18  -1.16187333528213E-17
      5.79787406967430E-19  -1.36736539014267E-19  -6.98281126721481E-16  -7.82083021046743E-21   1.48359829598058E-16
      1.17832127748881E-17  -1.74634362821890E-18  -1.16186935760668E-17  -3.48610252655161E-19  -1.36720049750928E-19
     -1.72411590148423E-18  -1.16188360564651E-17  -1.72438213344949E-18  -1.16188059984597E-17   0.00000000000000E+00
      2.40707986395954E-17  -2.94288072710107E-18  -8.33156584669156E-19  -5.02790874568699E-19  -1.36648952287744E-19
     -5.06505580815261E-19  -1.36632687582934E-19  -2.93779601672557E-18  -8.33332236378560E-19   1.48359829598058E-16
      1.10656840200839E-18
      1.00000000000000E+06
      8.01106622830591E-35   9.18384913229147E-35  -2.78571428571429E-01   2.64316309273745E-39   1.17649344871260E-13
      1.22542954251322E-17  -1.21799264560886E-13  -9.51531631274434E-21  -1.99585958128078E-18  -1.20909597127963E-17
     -3.88603067295903E-19  -1.28917807851185E-19  -1.21799264017987E-13  -9.51535949436244E-21   1.17797704700858E-13
      1.22177661880503E-17  -2.03807077994675E-18  -1.20909915383615E-17  -4.40148396942715E-19  -1.28902996703965E-19
     -1.99894712518966E-18  -1.20911121124874E-17  -1.99922014182134E-18  -1.20910878877525E-17   0.00000000000000E+00
      2.49373197404075E-17  -2.26163458964207E-18  -7.55119743420492E-19  -4.10702042483971E-19  -1.28804904729611E-19
     -4.06471119239916E-19  -1.28789591865243E-19  -2.25094113582620E-18  -7.55346528427346E-19   0.00000000000000E+00
      1.01288224423928E-18
      1.00000000000000E+06
      1.57559939004951E-36  -3.06991309717796E-36  -1.39285714285714E-01   9.71613499059682E-43   2.11621944536967E-11
      1.27650039575924E-17  -2.11611062324588E-11  -1.13395466914353E-20  -2.24209071276207E-18  -1.26024237908741E-17
     -3.26410349566944E-19  -1.23698874631658E-19  -2.11611062387387E-11  -1.13396562965624E-20   2.11624911733558E-11
      1.26951064469327E-17  -2.12237811261361E-18  -1.26025139415194E-17  -2.77297199489585E-19  -1.23684999619147E-19
     -2.27794102169661E-18  -1.26026380977470E-17  -2.27822462499931E-18  -1.26026183518056E-17   0.00000000000000E+00
      2.58986510583568E-17  -1.79445336448508E-18  -6.93394609285206E-19  -4.39608386302962E-19  -1.23530829071525E-19
     -4.46718488024988E-19  -1.23515933537117E-19  -2.23232501722184E-18  -6.93732761194406E-19   0.00000000000000E+00
      9.40352927003941E-19
      1.00000000000000E+06
     -1.24805434523487E-32  -8.52386008181413E-33  -5.42101086242752E-20  -6.38386959340163E-38   3.58388211533346E-09
      1.33702111848063E-17  -3.58388097489000E-09  -1.34528517903564E-20  -2.60253593516346E-18  -1.32396221680637E-17
     -2.91737650346573E-19  -1.20578282056217E-19  -3.58388097506597E-09  -1.34536466232235E-20   3.58388092845483E-09
      1.32839374141162E-17  -2.28228969682880E-18  -1.32397677049617E-17  -2.38389949480611E-19  -1.20565280869067E-19
     -2.62353009191502E-18  -1.32399041777978E-17  -2.62383176843463E-18  -1.32398908139219E-17   0.00000000000000E+00
      2.71193539822795E-17  -1.43293116282518E-18  -6.39558990045307E-19  -1.38395307976300E-18  -1.20289802093712E-19
     -1.19675473465445E-18  -1.20274831439890E-19  -6.70071985781773E-18  -6.40135872435267E-19   0.00000000000000E+00
      8.80606219899713E-19
      1.00000000000000E+06
     -1.58781055912658E-35   1.91355879191242E-35   1.39285714285714E-01   1.59300915014209E-41   5.66087058996352E-07
      1.44076575949491E-17  -5.66087058180708E-07   6.92319317914986E-21  -3.15184510064915E-18  -1.43821594243941E-17
     -2.85786112877141E-19  -1.20936326126739E-19  -5.66087058180840E-07   6.98005356390440E-21   5.66087057809473E-07
      1.44732424629886E-17  -2.95322995871664E-18  -1.43819492789218E-17  -2.78601237799759E-19  -1.20918911950289E-19
     -3.32397503060977E-18  -1.43824674918356E-17  -3.32432421381053E-18  -1.43824715343654E-17   0.00000000000000E+00
      2.93530858119195E-17  -1.13434353602262E-18  -5.88146785749827E-19  -3.19469068519447E-19  -1.20344869801309E-19
     -3.17835726029980E-19  -1.20329997438895E-19  -1.40685075454736E-18  -5.89323602942425E-19   0.00000000000000E+00
      8.29982368859966E-19
      1.00000000000000E+06
      3.75249214198040E-37   2.90169438904210E-37   2.78571428571429E-01  -4.40352275275961E-43   4.84156818910229E-05
      1.85460781945464E-17  -4.84156818915588E-05   2.48463893184511E-18  -1.25969377082094E-17  -2.09182842331371E-17
     -3.15706803018922E-19  -1.39220832577510E-19  -4.84156818915417E-05   2.49178797297697E-18   4.84156818913196E-05
      1.86364501924256E-17  -9.83931069027606E-18  -2.09174530340184E-17  -3.04988480464505E-19  -1.39203656206054E-19
     -1.18360233588797E-17  -2.09200621610525E-17  -1.18365574556647E-17  -2.09200548240000E-17   0.00000000000000E+00
      4.23534868062657E-17  -8.07909738809929E-19  -5.13369820421829E-19   2.29919949986813E-18  -1.37225066062836E-19
      3.94283491688752E-19  -1.37210879047866E-19  -1.26533318163083E-19  -5.17360413332236E-19   0.00000000000000E+00
      7.91652571332092E-19
      1.00000000000000E+06
      7.12021655311650E-35  -6.94807773147006E-35   4.17857142857143E-01  -5.40343455898204E-39   2.67031936878212E-04
      1.89132465128993E-17  -2.67031936861766E-04   9.70983938325720E-18  -4.89239631159551E-17  -3.21245263546294E-17
     -3.24129801177091E-19  -1.98310677645136E-19  -2.67031936879966E-04   6.74341938707031E-18   2.67031936815011E-04
      1.28032164270146E-17  -9.67487209153158E-17  -3.22258232806557E-17  -1.87902891026332E-18  -1.98529733283176E-19
     -2.86482413614907E-17  -3.20887568160478E-17  -2.86482467781004E-17  -3.20882381098193E-17   0.00000000000000E+00
      6.45495797550530E-17  -2.84201749623061E-19  -3.72584812118286E-19  -2.96059095411075E-17  -1.94161272048231E-19
     -3.65387733829687E-17  -1.94137499658430E-19   3.32917020301234E-18  -3.80677263271796E-19   0.00000000000000E+00
      7.69086868329557E-19
      1.00000000000000E+06
     -1.61444955790673E-34   7.93691857729519E-35   5.57142857142857E-01   6.52519718329036E-39   4.27755131658207E-04
      2.27122518232448E-17  -4.27755131656298E-04   1.51850417259244E-17   7.77992806014190E-17  -3.54843344266412E-17
     -6.49180860869569E-19  -2.24371991396595E-19  -4.27755131651364E-04   1.70009560023304E-17   4.27755131664735E-04
      2.51177206932251E-17   3.37098660326266E-17  -3.54465504091219E-17  -4.15165582953293E-19  -2.24264173329336E-19
     -3.12664046686958E-17  -3.55053099854427E-17  -3.12657401463920E-17  -3.55043018655409E-17   0.00000000000000E+00
      7.13118633465130E-17  -7.78857676364012E-20  -3.02246991654035E-19  -7.42414280058388E-16  -2.21804119561671E-19
     -7.73453117569303E-16  -2.21772619231942E-19  -1.20318578212645E-17  -3.07447153000201E-19   0.00000000000000E+00
      7.50921972745620E-19
      1.00000000000000E+06
      4.48069301013864E-33  -1.91455728368503E-33   6.96428571428571E-01   3.09741950559446E-37   5.30392073417210E-04
      2.16099978054088E-17  -5.30392073422372E-04   1.57838105298201E-17  -2.02266656826195E-16  -3.69030476403201E-17
     -6.21659449529969E-19  -2.36583219825387E-19  -5.30392073416566E-04   1.84473255350345E-17   5.30392073422996E-04
      2.46457139598335E-17   5.39225807013229E-17  -3.68618368126615E-17  -5.77634118248448E-19  -2.36486748230837E-19
     -3.15661217222508E-17  -3.69062354438098E-17  -3.15650893028108E-17  -3.69049312835948E-17   0.00000000000000E+00
      7.40731211594465E-17   3.04622927892303E-20  -2.61955667669352E-19  -1.77806118870953E-16  -2.35129367651039E-19
     -1.77265715398276E-16  -2.35094577479174E-19  -2.03102487007705E-18  -2.64868194626537E-19   0.00000000000000E+00
      7.35071972056172E-19
      1.00000000000000E+06
     -1.14520945504417E-35   3.16781667206652E-35   8.35714285714286E-01  -6.40315991025020E-39   6.02552895343844E-04
      2.55702214752519E-17  -6.02552895325721E-04   2.02195652628927E-17  -1.09160750538654E-16  -3.76610961050828E-17
     -3.98810415929179E-19  -2.45035365949135E-19  -6.02552895338713E-04   1.67853756464162E-17   6.02552895323816E-04
      2.19429478060946E-17  -3.08302608862806E-17  -3.76990927253215E-17  -5.77760023670992E-19  -2.45044991876986E-19
     -3.14978093511269E-17  -3.77058722682315E-17  -3.14965645361797E-17  -3.77043757143608E-17   0.00000000000000E+00
      7.56418594307333E-17   1.08864252789965E-19  -2.31613118935051E-19  -4.73232410604985E-17  -2.44252824634993E-19
     -4.40598664697324E-17  -2.44216438843842E-19  -3.05108613671982E-18  -2.33282571866549E-19   0.00000000000000E+00
      7.21755921252307E-19
      1.00000000000000E+06
     -6.90835425107786E-34  -6.86502800323229E-34   9.75000000000000E-01   1.10414986009091E-38   6.57175020083898E-04
      2.41170583484314E-17  -6.57175020188839E-04   1.92938667524290E-17  -4.18666260219614E-16  -3.82287249510661E-17
     -1.02958572910747E-18  -2.52191071397859E-19  -6.57175020174275E-04   1.82579614015221E-17   6.57175020088645E-04
      2.30736439046551E-17  -3.11685225861977E-16  -3.82365676879621E-17  -9.30348542677259E-19  -2.52163132062157E-19
     -3.13613745979558E-17  -3.82522334630378E-17  -3.13599930942217E-17  -3.82506013767907E-17   0.00000000000000E+00
      7.67096650759284E-17   1.68972740565189E-19  -2.06832618237989E-19   1.27727003399405E-17  -2.51717361194603E-19
      1.62463183519863E-17  -2.51680025745002E-19  -3.82222699605524E-19  -2.07836898256735E-19   0.00000000000000E+00
      7.11236672582150E-19
}
