DF-ISE text

Info {
  version   = 1.0
  type      = xyplot
  datasets  = [
    "frequency"
    "v(d)" "v(s)" "v(g)" "v(b)" "a(d,d)"
    "c(d,d)" "a(d,s)" "c(d,s)" "a(d,g)" "c(d,g)"
    "a(d,b)" "c(d,b)" "a(s,d)" "c(s,d)" "a(s,s)"
    "c(s,s)" "a(s,g)" "c(s,g)" "a(s,b)" "c(s,b)"
    "a(g,d)" "c(g,d)" "a(g,s)" "c(g,s)" "a(g,g)"
    "c(g,g)" "a(g,b)" "c(g,b)" "a(b,d)" "c(b,d)"
    "a(b,s)" "c(b,s)" "a(b,g)" "c(b,g)" "a(b,b)"
    "c(b,b)" ]
  functions = [
    Frequency
    Voltage Voltage Voltage Voltage Admittance
    Capacitance Admittance Capacitance Admittance Capacitance
    Admittance Capacitance Admittance Capacitance Admittance
    Capacitance Admittance Capacitance Admittance Capacitance
    Admittance Capacitance Admittance Capacitance Admittance
    Capacitance Admittance Capacitance Admittance Capacitance
    Admittance Capacitance Admittance Capacitance Admittance
    Capacitance ]
}

Data {
      1.00000000000000E+06
      1.54663533922388E-45  -2.99118103215807E-46  -9.75000000000000E-01  -8.98570926580438E-48   0.00000000000000E+00
      1.59781246788734E-17   4.90067943851077E-18  -9.02764373602436E-20   6.41267684282098E-17  -1.51082506436849E-17
      3.11712383131747E-16  -8.75260297268472E-19   4.25288056929092E-18  -9.02764642918530E-20   0.00000000000000E+00
      1.59759128260384E-17   5.16599638132167E-17  -1.51082169616492E-17   1.46088738394661E-16  -8.75205854291039E-19
      4.02802824144565E-17  -1.51081491301422E-17   4.02796938530287E-17  -1.51081114078966E-17   0.00000000000000E+00
      3.59507606334341E-17  -6.66379120298356E-16  -5.73450008062940E-18  -4.88956615412244E-17  -8.75301551194075E-19
     -4.93554545560307E-17  -8.75248502742732E-19  -6.83777896449318E-16  -5.73439839342170E-18   0.00000000000000E+00
      7.48523164810278E-18
      1.00000000000000E+06
     -1.09316693025547E-32  -1.30202576169257E-32  -8.35714285714286E-01  -6.42426864421713E-34   0.00000000000000E+00
      1.66509629274143E-17  -3.72483909141632E-18  -1.14799135923591E-19   1.66929811080787E-17  -1.56300432374893E-17
      1.62648696947391E-16  -5.63889362586543E-19  -3.65653767381615E-18  -1.14801220308320E-19   0.00000000000000E+00
      1.63575854579738E-17  -2.40949769291472E-19  -1.56301864327535E-17  -4.78130918956964E-17  -5.63861342091814E-19
      1.23938048134471E-18  -1.56303249631099E-17   1.23917424497919E-18  -1.56302878490700E-17   0.00000000000000E+00
      3.32198029015698E-17  -2.17477908952072E-17  -1.95919006688566E-18  -3.71326214034776E-18  -5.63838194207638E-19
     -3.59781622515200E-18  -5.63791826692452E-19  -2.20957026405520E-17  -1.95933002041512E-18   0.00000000000000E+00
      3.08807210918239E-18
      1.00000000000000E+06
     -5.61625934560750E-35  -3.94886026845626E-35  -6.96428571428571E-01   6.77243448967121E-36   0.00000000000000E+00
      1.63840894557260E-17  -4.61318164440746E-16  -1.26542981233663E-19   2.47525021971559E-19  -1.59575404678427E-17
      1.04382424020467E-17  -5.03661227638679E-19  -4.61499043923917E-16  -1.26537708057516E-19   0.00000000000000E+00
      1.69829500957397E-17   4.28389089448233E-19  -1.59570918557119E-17   8.83223610896833E-17  -5.03586325085553E-19
     -5.03824936232339E-20  -1.59574981022386E-17  -5.05649324297147E-20  -1.59574644291380E-17   0.00000000000000E+00
      3.34983526755264E-17  -5.46201228666449E-18  -1.58339015100825E-18  -1.75814790134024E-18  -5.03553204836606E-19
     -1.70545282017044E-18  -5.03509442094532E-19  -5.26598803765868E-18  -1.58358157643419E-18   0.00000000000000E+00
      2.59025177587453E-18
      1.00000000000000E+06
     -8.82300565571328E-37   1.48278299737286E-35  -5.57142857142857E-01  -8.59071033625640E-36   3.11555642155923E-14
      1.66779930163292E-17  -3.80000551667360E-14  -1.37425422532347E-19  -7.11477843211600E-19  -1.62904208180738E-17
     -5.10845236974652E-18  -4.70341247665680E-19  -3.80004803844021E-14  -1.37423921811343E-19   3.16006437043864E-14
      1.68185583105452E-17  -6.99526911131361E-19  -1.62902911520482E-17   1.13483127864283E-17  -4.70289273514153E-19
     -3.23464341049583E-19  -1.62903620466020E-17  -3.23643145912685E-19  -1.62903322458719E-17   0.00000000000000E+00
      3.40033572909954E-17  -4.12252388828216E-18  -1.42266299998861E-18  -1.42390713522933E-18  -4.70223753199360E-19
     -1.39553146671681E-18  -4.70181889706664E-19  -4.28130416494400E-18  -1.42286411561275E-18   1.48359829598058E-16
      2.36647421613011E-18
      1.00000000000000E+06
      7.20098946268692E-35   9.35144066186799E-35  -4.17857142857143E-01   2.15234870787999E-36   3.03306835630271E-12
      1.78426683146198E-17  -3.03183492751637E-12  -1.49158112109315E-19  -6.36673017464890E-19  -1.66561425188163E-17
     -5.23067097057153E-17  -4.46351176712353E-19  -3.03183507240901E-12  -1.49160077809774E-19   3.03277163664351E-12
      1.76913506445923E-17  -9.71514027093933E-19  -1.66562202045820E-17   4.88134027253414E-18  -4.46324838103314E-19
     -5.21136889556809E-19  -1.66567363312582E-17  -5.21315234346959E-19  -1.66567104106140E-17   1.48359829598058E-16
      3.46239819140451E-17  -3.36822881776715E-18  -1.31053516835323E-18  -1.18599937886725E-18  -4.46270847582627E-19
     -1.18143775327000E-18  -4.46230317730239E-19  -3.36447889694613E-18  -1.31076452891918E-18   0.00000000000000E+00
      2.20310628374835E-18
      1.00000000000000E+06
      4.36278249920739E-36   2.08290288155692E-37  -2.78571428571429E-01  -4.08719665541721E-40   2.32043230001650E-10
      1.73847287246229E-17  -2.32040446015980E-10  -1.63219300589197E-19   3.51474370561673E-19  -1.70864780856762E-17
      3.31867446928801E-17  -4.28084997987463E-19  -2.32040443584289E-10  -1.63206334635369E-19   2.32035812010171E-10
      1.81928791257676E-17   6.64070062437888E-19  -1.70856718115122E-17  -1.06615876496606E-17  -4.28007537728894E-19
     -6.98332591663366E-19  -1.70863406484531E-17  -6.98513144116075E-19  -1.70863189920421E-17   0.00000000000000E+00
      3.53938032079582E-17  -2.83319137890918E-18  -1.22114355798557E-18  -9.65875847036770E-19  -4.27934930306368E-19
     -1.03978403711460E-18  -4.27895450089953E-19  -2.83576512647467E-18  -1.22141346802494E-18   0.00000000000000E+00
      2.07723058277296E-18
      1.00000000000000E+06
     -1.29915474382214E-34   1.28260339231627E-35  -1.39285714285714E-01  -6.72456144108170E-40   1.66642021498845E-08
      1.96328232403819E-17  -1.66642021265251E-08  -1.82563908526818E-19  -1.43839620274144E-18  -1.76446556015128E-17
     -1.59147507355148E-17  -4.14444620108806E-19  -1.66642021275244E-08  -1.82584216568083E-19   1.66642009630059E-08
      1.89858745394314E-17  -1.03678739085311E-18  -1.76454157309543E-17  -2.66507569923995E-17  -4.14445475676993E-19
     -8.87575312856519E-19  -1.76464529561150E-17  -8.87761786935940E-19  -1.76464365664972E-17   0.00000000000000E+00
      3.64389526013235E-17  -2.43141392609098E-18  -1.14606307910463E-18  -3.26062993289944E-17  -4.14430460684884E-19
     -2.60186433832850E-17  -4.14397239846321E-19  -2.11176399152294E-17  -1.14666548001895E-18  -1.48359829598058E-16
      1.72186735154576E-18
      1.00000000000000E+06
      1.19875102303258E-33   2.54173375856633E-34  -5.42101086242752E-20  -7.03978390412460E-40   1.05247717692090E-06
      1.98902533927234E-17  -1.05247717697670E-06  -2.02752929388399E-19  -6.60154360813702E-19  -1.85985456224498E-17
      3.28506096290852E-18  -4.05590592256373E-19  -1.05247717697716E-06  -2.02964072629684E-19   1.05247717558566E-06
      1.94726975727812E-17  -2.99771819483880E-18  -1.85992665865266E-17   4.87245841866125E-19  -4.05581045016626E-19
     -1.20131527567285E-18  -1.85999136151080E-17  -1.20151056964117E-18  -1.85999044457431E-17   0.00000000000000E+00
      3.82784322798364E-17  -2.11134157134743E-18  -1.07861421643195E-18  -6.91590280299356E-18  -4.05396100901340E-19
     -8.72899952866422E-18  -4.05358062735121E-19  -2.21591715351096E-17  -1.07907672293047E-18  -3.26391625115728E-15
      1.89409622351600E-18
      1.00000000000000E+06
     -2.91301569871216E-34   9.27077607042024E-36   1.39285714285714E-01   1.43209533717051E-40   3.90873616168142E-05
      2.20035318385459E-17  -3.90873616230005E-05   5.00684356377536E-19   9.93618667287849E-18  -2.16859734824039E-17
      2.07727018351937E-17  -4.05040330019343E-19  -3.90873616228695E-05   5.31002537083775E-19   3.90873616283863E-05
      2.39620452893881E-17   5.60397359975235E-18  -2.16820400470630E-17   4.42209072977979E-17  -4.04905386974128E-19
     -2.97937834577454E-18  -2.16872739249573E-17  -2.97959604991228E-18  -2.16872684802312E-17   0.00000000000000E+00
      4.43793247280763E-17  -1.80780400385576E-18  -1.00478235029789E-18   6.36548917968933E-17  -4.04712056189786E-19
      9.92623651407226E-17  -4.04674561361658E-19  -5.57416292311494E-18  -1.00551430004022E-18   0.00000000000000E+00
      1.80019918250342E-18
      1.00000000000000E+06
     -1.90283203837714E-36  -5.11143638043117E-35   2.78571428571429E-01  -1.10738435522208E-41   2.61515382050097E-04
      2.78920168928663E-17  -2.61515382105779E-04   4.67915867657854E-18  -3.37418310534362E-16  -2.74197516371463E-17
      3.42106003615444E-16  -4.24356440515545E-19  -2.61515382114011E-04   6.45797107535046E-18   2.61515382126799E-04
      4.33731028505832E-17  -1.31563711434697E-16  -2.73696727623966E-17   5.73829303648031E-17  -4.23491493733183E-19
     -6.79501581704684E-18  -2.74359700790970E-17  -6.79522664187533E-18  -2.74359081684987E-17   0.00000000000000E+00
      5.57739073258731E-17  -1.45828212534824E-18  -9.02028456212696E-19   1.18625125211322E-15  -4.23967791587217E-19
      1.18369787966787E-15  -4.23923200064465E-19  -2.12151656803056E-18  -9.03372992076689E-19   0.00000000000000E+00
      1.75343114427702E-18
      1.00000000000000E+06
      6.08569008795627E-35   3.34028324596120E-35   4.17857142857143E-01  -2.86993859450822E-39   5.52219589920673E-04
     -6.26159516148532E-16  -5.52219588895147E-04  -1.70382360816914E-16  -2.54641927160169E-15  -3.39146164133351E-17
      6.64624721712979E-16  -5.02036845292906E-19  -5.52219589090029E-04  -1.16544489360244E-17   5.52219588940014E-04
     -4.83066406887036E-17   4.53006250492414E-16  -3.12578300859302E-17   1.22807771408402E-16  -4.64216096364209E-19
     -8.19842266492832E-18  -3.09607479051252E-17  -8.19861645827188E-18  -3.09605642798171E-17   1.48359829598058E-16
      6.27063037262562E-17  -1.12537725236082E-18  -7.85007512225286E-19   2.68189180514977E-15  -4.58414299906500E-19
      2.67330224375716E-15  -4.58358436987271E-19   8.65930642654218E-18  -7.88176484057608E-19   0.00000000000000E+00
      1.69594538648126E-18
      1.00000000000000E+06
      1.60498601876195E-33   1.94923057454153E-33   5.57142857142857E-01   1.54698611353066E-37   8.14671770555897E-04
      1.97304323014296E-16  -8.14671770344536E-04   8.16950982414675E-17   3.16955769868591E-15  -3.24835212952349E-17
     -6.92574650293219E-16  -5.01266165924089E-19  -8.14671770416339E-04   6.37693301195201E-18   8.14671770475931E-04
      1.52417281241396E-17   2.83196295680373E-16  -3.33776380813462E-17  -3.43809249140655E-16  -5.11687626299733E-19
     -8.96822343331516E-18  -3.33413081165976E-17  -8.96835918812338E-18  -3.33409811423219E-17   0.00000000000000E+00
      6.73384112717473E-17  -8.04148310498410E-19  -6.56123273015375E-19  -1.15871635969309E-15  -5.08060743620342E-19
     -1.46238556285640E-15  -5.07992188889261E-19  -1.69115600555984E-17  -6.62562172271483E-19   0.00000000000000E+00
      1.67826800338249E-18
      1.00000000000000E+06
      3.87550461553358E-33   1.83698591169472E-32   6.96428571428571E-01  -1.31131783273859E-34   1.04142788021859E-03
     -6.15078551487406E-18  -1.04142788068236E-03  -4.27983084428029E-18  -1.36276525792013E-15  -3.53227766430250E-17
      1.60807150273967E-16  -5.63845479101116E-19  -1.04142788068800E-03   2.34593299981677E-19   1.04142788039736E-03
      1.96714747876078E-18  -7.45202289931199E-16  -3.52755566498259E-17  -1.35068496253540E-17  -5.63362551274358E-19
     -9.54482040098139E-18  -3.51740094430573E-17  -9.54489883768812E-18  -3.51735410944456E-17   1.48359829598058E-16
      7.08875501119736E-17  -5.38987564188383E-19  -5.40000938673043E-19   1.33373100074850E-15  -5.58451987041127E-19
      6.43487800398934E-16  -5.58373161930453E-19   4.38085869420841E-18  -5.48105190723628E-19   0.00000000000000E+00
      1.65845577158969E-18
      1.00000000000000E+06
      3.61942472918222E-36  -4.76912434698491E-36   8.35714285714286E-01  -1.12847968698411E-37   1.23700877132992E-03
     -4.24067727014125E-17  -1.23700876134311E-03  -2.82060145998029E-17   3.09775936523710E-14  -3.68749589723392E-17
      4.64508353286185E-16  -5.93056835566143E-19  -1.23700876408511E-03   1.90606768520756E-17   1.23700876697274E-03
      3.39461117076601E-17   8.87082638200414E-15  -3.64913267446749E-17  -7.49906037543968E-18  -5.90607454239924E-19
     -9.86424273602328E-18  -3.65438946163520E-17  -9.86426221074181E-18  -3.65432954935205E-17   0.00000000000000E+00
      7.35573575218291E-17  -3.96635758908098E-19  -4.70165489278430E-19   2.12069535720808E-15  -5.87249361535216E-19
      1.40800610319208E-15  -5.87161629661181E-19   2.41242214156732E-17  -4.77644771444080E-19   1.48359829598058E-16
      1.64916099451085E-18
      1.00000000000000E+06
     -3.59877377964283E-34  -8.12199148942501E-34   9.75000000000000E-01  -1.73938228566875E-36   1.40683133504018E-03
     -2.02845537575169E-17  -1.40683133449081E-03  -1.66694514333323E-17   1.45981215151346E-15  -3.78141968977616E-17
      3.93015097582202E-17  -6.06193676666417E-19  -1.40683133466241E-03   3.42379440328102E-17   1.40683133489211E-03
      5.36893156269363E-17   9.19545071554927E-16  -3.74524396875408E-17  -1.02609295648994E-16  -6.04448960170379E-19
     -1.00463576885471E-17  -3.75990998452392E-17  -1.00463396617838E-17  -3.75983810308395E-17   0.00000000000000E+00
      7.56257684789819E-17  -3.18188173762661E-19  -4.28280280133287E-19  -4.85798163392163E-15  -6.02038319355072E-19
     -4.89924763882175E-15  -6.01942935297659E-19  -2.05814062993147E-17  -4.34537630369196E-19   0.00000000000000E+00
      1.65830138930509E-18
}
