DF-ISE text

Info {
  version   = 1.0
  type      = xyplot
  datasets  = [
    "frequency"
    "v(d)" "v(s)" "v(g)" "v(b)" "a(d,d)"
    "c(d,d)" "a(d,s)" "c(d,s)" "a(d,g)" "c(d,g)"
    "a(d,b)" "c(d,b)" "a(s,d)" "c(s,d)" "a(s,s)"
    "c(s,s)" "a(s,g)" "c(s,g)" "a(s,b)" "c(s,b)"
    "a(g,d)" "c(g,d)" "a(g,s)" "c(g,s)" "a(g,g)"
    "c(g,g)" "a(g,b)" "c(g,b)" "a(b,d)" "c(b,d)"
    "a(b,s)" "c(b,s)" "a(b,g)" "c(b,g)" "a(b,b)"
    "c(b,b)" ]
  functions = [
    Frequency
    Voltage Voltage Voltage Voltage Admittance
    Capacitance Admittance Capacitance Admittance Capacitance
    Admittance Capacitance Admittance Capacitance Admittance
    Capacitance Admittance Capacitance Admittance Capacitance
    Admittance Capacitance Admittance Capacitance Admittance
    Capacitance Admittance Capacitance Admittance Capacitance
    Admittance Capacitance Admittance Capacitance Admittance
    Capacitance ]
}

Data {
      1.00000000000000E+06
     -2.10598461917832E-46   2.56646083919370E-46   9.75000000000000E-01   3.69449260459908E-48   0.00000000000000E+00
      1.72233742472372E-17  -2.54661878689284E-17  -2.88777808695714E-20  -3.66923768912474E-16  -1.44080216684098E-17
     -2.26795119721283E-14  -2.53099476801195E-18   7.79688793630201E-17  -2.88776846889996E-20   0.00000000000000E+00
      1.72805170298868E-17   1.24549207082237E-15  -1.44074011008531E-17   3.55031392540526E-14  -2.53099587445012E-18
      2.51791868469819E-16  -1.44082976267502E-17   2.51798239547326E-16  -1.44076971491707E-17   1.48359829598058E-16
      5.11039810105974E-17  -3.09304741336006E-15  -2.22879864811448E-17  -3.05188294874135E-16  -2.53090704261774E-18
     -3.06073962958012E-16  -2.53090345917277E-18  -3.12925608126952E-15  -2.22880266348849E-17   0.00000000000000E+00
      2.73589477543361E-17
      1.00000000000000E+06
     -1.12399626425647E-35  -7.36463797018756E-36   8.35714285714286E-01   1.95535760078348E-36   1.48359829598058E-16
      1.77396972792682E-17  -9.76739010927198E-18  -1.15833041106515E-19   1.20946538346923E-16  -1.59093515513942E-17
      1.03105440602094E-15  -1.04804157797361E-18  -1.20726989595254E-17  -1.15833209717806E-19   1.48359829598058E-16
      1.77195869768390E-17   1.28407505447939E-16  -1.59087996475912E-17   1.09844865288309E-15  -1.04802095856614E-18
      6.00830797249172E-17  -1.59097389453591E-17   6.00875993938870E-17  -1.59091274887910E-17   0.00000000000000E+00
      3.81799200126784E-17  -8.58939104982270E-16  -6.36105352855582E-18  -7.25961117476325E-17  -1.04819444348135E-18
     -7.26196594060271E-17  -1.04815791768936E-18  -8.59066018859150E-16  -6.36084051261115E-18   0.00000000000000E+00
      8.45800403406044E-18
      1.00000000000000E+06
      5.66858935544521E-36   9.97631058116680E-36   6.96428571428571E-01  -7.63342966040761E-35   0.00000000000000E+00
      1.74977533207219E-17  -1.53911176054583E-15  -1.49658387588962E-19   2.45060362248709E-18  -1.65468986486550E-17
      3.82211405143997E-18  -6.54171529659447E-19  -1.53932784985339E-15  -1.49659554474635E-19   0.00000000000000E+00
      1.73727063139192E-17   2.99497629601994E-19  -1.65463476707943E-17  -9.65813529935815E-18  -6.54130676065105E-19
      2.27447099888300E-18  -1.65471545032351E-17   2.27449752391833E-18  -1.65465048152676E-17   0.00000000000000E+00
      3.51703603976189E-17  -2.73094357551072E-17  -2.07670105617780E-18  -5.21728070525738E-18  -6.54039537087698E-19
     -5.17027012086848E-18  -6.53990604819454E-19  -2.67745604731865E-17  -2.07698037948897E-18   0.00000000000000E+00
      3.38590945482267E-18
      1.00000000000000E+06
     -5.51336668104346E-33  -5.80028346018674E-33   5.57142857142857E-01   9.73651829148522E-35   1.05780558503416E-13
      1.72859112496418E-17  -1.16673541781231E-13  -1.65643778841171E-19  -1.08487469687172E-19  -1.69454357376497E-17
     -1.49623548901693E-17  -5.84538783560807E-19  -1.16673243081884E-13  -1.65639212201088E-19   1.06077278162612E-13
      1.77036526066786E-17  -1.15625012572707E-18  -1.69443856429509E-17  -7.83854846445280E-18  -5.84469413906126E-19
      4.72837812606669E-19  -1.69452835560290E-17   4.72812357818404E-19  -1.69445727106914E-17   0.00000000000000E+00
      3.55664446177737E-17  -8.14587105237581E-18  -1.67658834807039E-18  -2.99815657361650E-18  -5.84336321947135E-19
     -2.97259336516001E-18  -5.84290136740363E-19  -8.33057937219005E-18  -1.67694758711913E-18   0.00000000000000E+00
      2.84568000923895E-18
      1.00000000000000E+06
      4.83436037764862E-34   1.67630003283416E-34   4.17857142857143E-01  -8.33836057915731E-37   8.58365466105487E-12
      1.80725524213494E-17  -8.58323827225542E-12  -1.81554684654287E-19  -2.54728823473051E-19  -1.73683709102538E-17
     -6.20566757252807E-18  -5.45994081883073E-19  -8.58324068046311E-12  -1.81566376075433E-19   8.58365466105487E-12
      1.71631800030277E-17  -1.29276046900982E-18  -1.73683753814075E-17   2.88449381291040E-17  -5.45983983854904E-19
      4.76637709919348E-20  -1.73685492428430E-17   4.76679141197828E-20  -1.73677669997458E-17   0.00000000000000E+00
      3.62378207915993E-17  -6.13702351665297E-18  -1.50150454836679E-18  -2.26297658531450E-18  -5.45794160118149E-19
     -2.27478632570784E-18  -5.45749785556351E-19  -6.09861836199886E-18  -1.50190038103826E-18   0.00000000000000E+00
      2.59412281960469E-18
      1.00000000000000E+06
     -2.86465494444308E-36   1.29408182629477E-35   2.78571428571429E-01  -8.32905663313015E-39   6.02891471495756E-10
      1.90752375744418E-17  -6.02889867417351E-10  -2.00553732134194E-19  -7.22800584053543E-19  -1.78676218778766E-17
     -5.54342834329766E-17  -5.18820726781683E-19  -6.02889868305513E-10  -2.00553414017768E-19   6.02892213294904E-10
      1.90721278946708E-17  -5.27197601635732E-19  -1.78667242964270E-17  -4.00676755159374E-17  -5.18779311131158E-19
     -2.66478004068219E-19  -1.78683012924706E-17  -2.66441147920245E-19  -1.78674291423438E-17   0.00000000000000E+00
      3.71138334605295E-17  -4.98540047491777E-18  -1.37810302452746E-18  -2.07461460539281E-18  -5.18610266922243E-19
     -2.22166104672251E-18  -5.18567322164664E-19  -5.02975046754818E-18  -1.37856144870620E-18   0.00000000000000E+00
      2.41752728861867E-18
      1.00000000000000E+06
     -2.03192419364324E-35   1.63098836335049E-34   1.39285714285714E-01  -4.37420141691596E-39   3.92714547248279E-08
      1.35770641327250E-17  -3.92714441872364E-08  -2.27952810397646E-19   6.92435558998083E-18  -1.85521673254494E-17
      4.06517778269278E-16  -4.99245079149790E-19  -3.92714442166599E-08  -2.27553465020365E-19   3.92714188217492E-08
      2.44058217429687E-17   5.85174762379644E-18  -1.85392442813164E-17   6.38657142874956E-16  -4.98746452224148E-19
     -5.82605126390701E-19  -1.85462775190229E-17  -5.82522783222110E-19  -1.85452784036311E-17   0.00000000000000E+00
      3.83696877860653E-17  -4.16457975613211E-18  -1.27813193377558E-18  -1.80464642024505E-18  -4.98693106074441E-19
     -2.26140807328466E-18  -4.98651480778556E-19  -4.23793128888167E-18  -1.27870530271784E-18   0.00000000000000E+00
      2.27556010981890E-18
      1.00000000000000E+06
      7.03219618991561E-35  -1.25994568517621E-34   5.42101086242752E-20   1.25979019217443E-39   2.14027720814123E-06
      1.98083397794494E-17  -2.14027720725399E-06  -2.29921974562817E-19   9.41363452482481E-19  -1.98808185890182E-17
      1.18775923705119E-17  -4.86777745031241E-19  -2.14027720725757E-06  -2.29575284150883E-19   2.14027720472896E-06
      2.01323806424645E-17  -4.31601116394196E-19  -1.98791494177253E-17   2.22993119187597E-18  -4.86716808197224E-19
     -1.25010001327012E-18  -1.98801055293670E-17  -1.24992499347928E-18  -1.98788979514170E-17   0.00000000000000E+00
      4.09482212335291E-17  -3.52833140530928E-18  -1.18921775012934E-18  -1.57234191350600E-18  -4.86347709872017E-19
     -1.37631943333574E-18  -4.86306995629110E-19  -3.51649027472726E-18  -1.19000006864272E-18   0.00000000000000E+00
      2.16289974826719E-18
      1.00000000000000E+06
     -6.11469828100253E-35   2.08989827041440E-34  -1.39285714285714E-01   6.53202138553881E-40   5.11634340357320E-05
      2.56392595476594E-17  -5.11634340253512E-05   1.19780672615088E-18  -2.12628907339928E-17  -2.44433638097892E-17
      9.58863566469100E-18  -4.91169888717199E-19  -5.11634340252932E-05   1.15271689478320E-18   5.11634340268304E-05
      2.36156531635147E-17   1.82611411845136E-19  -2.44458605596702E-17   4.13356565426502E-17  -4.91231594001204E-19
     -5.74354563242915E-18  -2.44477305197331E-17  -5.74312067729254E-18  -2.44461784041766E-17   0.00000000000000E+00
      4.99828083766921E-17  -2.94584947468636E-18  -1.08889948791035E-18  -1.00082892014835E-16  -4.90643616680209E-19
     -1.01940870685503E-16  -4.90602782860065E-19  -2.11731084332702E-16  -1.09013777481941E-18  -2.03846405867732E-13
      2.07421472449103E-18
      1.00000000000000E+06
     -6.32833792121744E-36   6.62541018984950E-36  -2.78571428571429E-01   5.77248483107435E-41   2.21437022328124E-04
      2.07981348571568E-17  -2.21437022340970E-04   4.23714846967221E-18   2.60394262989766E-18  -3.01830573700851E-17
      8.16683176109138E-19  -5.22563829614929E-19  -2.21437022340769E-04   4.90531048604791E-18   2.21437022334948E-04
      2.71514109186225E-17   3.70385638564318E-17  -3.01614660465883E-17   2.73917323587244E-16  -5.22164808050133E-19
     -1.05383085249526E-17  -3.01682457704137E-17  -1.05376859274189E-17  -3.01664541752250E-17   0.00000000000000E+00
      6.12902764226675E-17  -2.31494183921858E-18  -9.55576606498837E-19   8.72806097424914E-17  -5.21005059442397E-19
      1.26002841929138E-16  -5.20958195365457E-19  -1.77353883796249E-16  -9.58061536281103E-19  -2.23578263204274E-13
      2.01664756985332E-18
      1.00000000000000E+06
      6.35769546352594E-37  -1.08886294530930E-36  -4.17857142857143E-01   1.29258007114520E-40   4.23553900703445E-04
      1.80821299769155E-17  -4.23553900699300E-04   5.88970344426689E-18   7.91498216235415E-17  -3.36378316108591E-17
      4.30658118732188E-17  -5.67873255167426E-19  -4.23553900702880E-04   7.89591152500526E-18   4.23553900710121E-04
      2.74984026021983E-17   4.96420129206503E-17  -3.36015531144402E-17  -1.33551983916663E-16  -5.67316943381067E-19
     -1.18750311944873E-17  -3.36099278837571E-17  -1.18743307922933E-17  -3.36080260970340E-17   0.00000000000000E+00
      6.80308219716841E-17  -1.73113692795768E-18  -8.12866763113008E-19  -8.94995686262114E-16  -5.64545620862907E-19
     -7.21763550299864E-16  -5.64490823331880E-19  -1.35612978215415E-16  -8.18655219377997E-19  -1.68091686934600E-13
      1.90533513460680E-18
      1.00000000000000E+06
      5.52683912945972E-34   1.48556206792571E-35  -5.57142857142857E-01   7.58206320277919E-38   6.15707043417504E-04
      8.49374639059013E-18  -6.15707043444247E-04   4.08103325984961E-18   2.59713907239493E-16  -3.60236024818216E-17
      1.52607518232616E-16  -6.23092837606199E-19  -6.15707043467182E-04   7.61973341725015E-18   6.15707043431302E-04
      1.93602020516500E-17  -2.33073073567144E-16  -3.59790724067172E-17  -1.50174184612390E-17  -6.22557510545090E-19
     -1.24961928186297E-17  -3.59593371709855E-17  -1.24954844469700E-17  -3.59574099965471E-17   0.00000000000000E+00
      7.25863631657256E-17  -1.20209491581817E-18  -6.69617825762221E-19   7.26355271352172E-16  -6.17254169612130E-19
      7.70548749583824E-16  -6.17190782491791E-19   1.09008569464715E-17  -6.79748384163563E-19   1.48359829598058E-16
      1.90871515330243E-18
      1.00000000000000E+06
     -2.10587078995103E-34   5.96279280724746E-34  -6.96428571428571E-01   4.07057738699687E-38   7.90892295024686E-04
     -5.51065990330095E-19  -7.90892295181295E-04   3.52722837805101E-19   4.12744114484906E-16  -3.77423531680552E-17
      4.39716567618714E-16  -6.67676658040984E-19  -7.90892295324536E-04   4.12360720815503E-17   7.90892295249154E-04
      1.01941194552749E-16  -1.31403785551978E-15  -3.73548265918641E-17   6.15261469306935E-17  -6.64497164445235E-19
     -1.27648717826898E-17  -3.76418664839069E-17  -1.27642045280536E-17  -3.76399750180637E-17   0.00000000000000E+00
      7.58399781822105E-17  -8.30831627167299E-19  -5.58136762030179E-19   7.34248793915551E-16  -6.61105514161049E-19
      7.21793344236487E-16  -6.61034628604818E-19   4.60906037557835E-18  -5.69573302242682E-19   1.48359829598058E-16
      1.89027227814846E-18
      1.00000000000000E+06
      2.27321342703872E-33  -1.87307506281864E-33  -8.35714285714286E-01  -6.99542171151461E-36   9.49215805145037E-04
      3.15954437056373E-17  -9.49215805177953E-04   1.51199171429219E-17  -2.47116787812888E-16  -3.88210177865040E-17
      6.76056692465198E-17  -6.90670146337804E-19  -9.49215805140434E-04   1.04507034928435E-17   9.49215805148894E-04
      2.18439393165721E-17  -3.36974488397241E-17  -3.88560321248793E-17   7.73359246393849E-17  -6.90798496699201E-19
     -1.27633465881214E-17  -3.88447128458159E-17  -1.27627472453673E-17  -3.88428915884491E-17   0.00000000000000E+00
      7.81784376759928E-17  -6.33080749300580E-19  -4.90831042858639E-19   9.95139304540470E-16  -6.85732254438565E-19
      9.75089446947396E-16  -6.85655175815527E-19   1.26532618713212E-17  -5.00916600251654E-19   0.00000000000000E+00
      1.87186933166379E-18
      1.00000000000000E+06
      9.62374494760392E-36  -4.25348967819863E-36  -9.75000000000000E-01  -1.65493969241599E-38   1.09248485012567E-03
      2.52054086679953E-17  -1.09248485012307E-03   1.29266379182661E-17  -1.58214235459765E-17  -3.97457285704196E-17
      2.66862767301439E-17  -7.03522535919254E-19  -1.09248485013334E-03   1.75788994472028E-17   1.09248485014007E-03
      3.38198456783354E-17  -4.29577375031644E-17  -3.97124967378546E-17  -8.68442458084430E-17  -7.03310717489883E-19
     -1.26610084821187E-17  -3.97441607033886E-17  -1.26604724574922E-17  -3.97424248429704E-17   0.00000000000000E+00
      7.99349659585076E-17  -5.20374456664399E-19  -4.48379289086213E-19   7.51094518134040E-16  -6.99403841652417E-19
      7.89026390727188E-16  -6.99321674791017E-19   8.36314113036943E-18  -4.56563531008336E-19   0.00000000000000E+00
      1.85939162034138E-18
}
