DF-ISE text

Info {
  version   = 1.0
  type      = xyplot
  datasets  = [
    "pdrain OuterVoltage" "pdrain TotalCurrent" "psource OuterVoltage" "psource TotalCurrent" "substrate OuterVoltage" "pgate OuterVoltage" ]
  functions  = [
    OuterVoltage TotalCurrent OuterVoltage TotalCurrent OuterVoltage OuterVoltage ]
}

Data {
-0.05 -3.61219564091e-5 0.0 3.61222604502e-5 0.0 -0.9
-0.05 -3.31325118804e-5 0.0 3.31327073397e-5 0.0 -0.8
-0.05 -2.96975015845e-5 0.0 2.96975816907e-5 0.0 -0.7
-0.05 -2.56586196797e-5 0.0 2.56585787841e-5 0.0 -0.6
-0.05 -2.07741509576e-5 0.0 2.07739928543e-5 0.0 -0.5
-0.05 -1.47141182056e-5 0.0 1.47138527248e-5 0.0 -0.4
-0.05 -7.4052362539e-6 0.0 7.40484349277e-6 0.0 -0.3
-0.05 -1.38318229727e-6 0.0 1.38304308921e-6 0.0 -0.2
-0.05 -5.84157714309e-8 0.0 5.84088732016e-8 0.0 -0.1
-0.05 -1.54433447543e-9 0.0 1.5441298742e-9 0.0 0
-0.05 -3.84273084494e-11 0.0 3.84217315615e-11 0.0 0.1
-0.05 -9.36321756592e-13 0.0 9.36173676778e-13 0.0 0.2
-0.05 -2.25292072093e-14 0.0 2.25252679363e-14 0.0 0.3
}
