DF-ISE text

Info {
  version   = 1.0
  type      = xyplot
  datasets  = [
    "ndrain OuterVoltage" "ndrain TotalCurrent" "nsource OuterVoltage" "nsource TotalCurrent" "substrate OuterVoltage" "ngate OuterVoltage" ]
  functions  = [
    OuterVoltage TotalCurrent OuterVoltage TotalCurrent OuterVoltage OuterVoltage ]
}

Data {
0.05 1.24547063777e-15 0.0 -1.24505506498e-15 0.0 -0.3
0.05 5.345651834e-14 0.0 -5.34400149437e-14 0.0 -0.2
0.05 2.28121759453e-12 0.0 -2.28056527062e-12 0.0 -0.1
0.05 9.6548427679e-11 0.0 -9.65228945571e-11 0.0 0
0.05 4.02469996623e-9 0.0 -4.02373542899e-9 0.0 0.1
0.05 1.57779414458e-7 0.0 -1.57746174174e-7 0.0 0.2
0.05 3.32368591817e-6 0.0 -3.32302676732e-6 0.0 0.3
0.05 1.52471623704e-5 0.0 -1.52453976869e-5 0.0 0.4
0.05 2.83968377484e-5 0.0 -2.83967482314e-5 0.0 0.5
0.05 3.74278922769e-5 0.0 -3.74289553256e-5 0.0 0.6
0.05 4.36417101646e-5 0.0 -4.36435166064e-5 0.0 0.7
0.05 4.83069379142e-5 0.0 -4.83092751676e-5 0.0 0.8
0.05 5.20554826438e-5 0.0 -5.20582248772e-5 0.0 0.9
}
