DF-ISE text

Info {
  version   = 1.0
  type      = xyplot
  datasets  = [
    "ndrain OuterVoltage" "ndrain TotalCurrent" "nsource OuterVoltage" "nsource TotalCurrent" "substrate OuterVoltage" "ngate OuterVoltage" ]
  functions  = [
    OuterVoltage TotalCurrent OuterVoltage TotalCurrent OuterVoltage OuterVoltage ]
}

Data {
0.9 1.68701876041e-15 0.0 -1.6863849427e-15 0.0 -0.3
0.9 7.30200509975e-14 0.0 -7.29950704079e-14 0.0 -0.2
0.9 3.13929787797e-12 0.0 -3.13812314308e-12 0.0 -0.1
0.9 1.33565715855e-10 0.0 -1.33527662576e-10 0.0 0
0.9 5.57490640771e-9 0.0 -5.57346718207e-9 0.0 0.1
0.9 2.1442239219e-7 0.0 -2.1436912024e-7 0.0 0.2
0.9 4.05167364723e-6 0.0 -4.0504384546e-6 0.0 0.3
0.9 1.7434760577e-5 0.0 -1.74273094493e-5 0.0 0.4
0.9 3.64397981565e-5 0.0 -3.6421120679e-5 0.0 0.5
0.9 5.78458115496e-5 0.0 -5.78145101643e-5 0.0 0.6
0.9 8.04327193718e-5 0.0 -8.03893214875e-5 0.0 0.7
0.9 0.000103717253248 0.0 -0.000103661220784 0.0 0.8
0.9 0.000127441633247 0.0 -0.000127372635425 0.0 0.9
}
