DF-ISE text

Info {
  version   = 1.0
  type      = xyplot
  datasets  = [
    "frequency"
    "v(d)" "v(s)" "v(g)" "v(b)" "a(d,d)"
    "c(d,d)" "a(d,s)" "c(d,s)" "a(d,g)" "c(d,g)"
    "a(d,b)" "c(d,b)" "a(s,d)" "c(s,d)" "a(s,s)"
    "c(s,s)" "a(s,g)" "c(s,g)" "a(s,b)" "c(s,b)"
    "a(g,d)" "c(g,d)" "a(g,s)" "c(g,s)" "a(g,g)"
    "c(g,g)" "a(g,b)" "c(g,b)" "a(b,d)" "c(b,d)"
    "a(b,s)" "c(b,s)" "a(b,g)" "c(b,g)" "a(b,b)"
    "c(b,b)" ]
  functions = [
    Frequency
    Voltage Voltage Voltage Voltage Admittance
    Capacitance Admittance Capacitance Admittance Capacitance
    Admittance Capacitance Admittance Capacitance Admittance
    Capacitance Admittance Capacitance Admittance Capacitance
    Admittance Capacitance Admittance Capacitance Admittance
    Capacitance Admittance Capacitance Admittance Capacitance
    Admittance Capacitance Admittance Capacitance Admittance
    Capacitance ]
}

Data {
      1.00000000000000E+06
     -1.81887150543293E-46   1.16149641600357E-46  -9.75000000000000E-01  -1.55294962127490E-47   0.00000000000000E+00
      1.28985618812047E-17   4.91434278564832E-18  -8.27574408685209E-21   1.32331616652057E-16  -1.24569251664066E-17
      1.05361148961608E-15  -6.86005764642732E-19   3.20340701077265E-18  -8.27558749860771E-21   0.00000000000000E+00
      1.31450452455067E-17   8.87057786078789E-17  -1.24567140591911E-17   5.31769999824453E-16  -6.85949660630643E-19
      4.24450892493886E-17  -1.24567173064737E-17   4.24435860207843E-17  -1.24566821721000E-17   1.48359829598058E-16
      3.60081703709925E-17  -1.11311265994558E-15  -1.10947708403592E-17  -4.81886243121959E-17  -6.86011434174743E-19
     -4.84449725398366E-17  -6.85963909020729E-19  -1.11580275947839E-15  -1.10943644719571E-17   0.00000000000000E+00
      1.24748317773586E-17
      1.00000000000000E+06
     -6.04136252280860E-38   3.38253159039015E-38  -8.35714285714286E-01  -1.64187644881589E-37   0.00000000000000E+00
      1.32270201032773E-17   1.27606551287131E-19  -1.80470439310126E-20  -4.68556014220536E-18  -1.30709312227736E-17
     -4.18739755566902E-17  -3.41380337336740E-19   4.78830937760565E-20  -1.80470681013741E-20   0.00000000000000E+00
      1.31834937127784E-17  -1.38998253263758E-18  -1.30708960701250E-17  -2.89020475753858E-17  -3.41343673075999E-19
      7.49166841016371E-19  -1.30707661207053E-17   7.48883488738624E-19  -1.30707324738929E-17   0.00000000000000E+00
      2.81406291657055E-17  -2.63345336967195E-17  -1.99913057655183E-18  -2.73783655869550E-18  -3.41375524933811E-19
     -2.75846486607356E-18  -3.41338965616545E-19  -2.56833560433021E-17  -1.99912557909047E-18   1.48359829598058E-16
      2.68233630382096E-18
      1.00000000000000E+06
     -4.47092482521987E-34  -2.41325105553048E-34  -6.96428571428571E-01  -1.29649061958433E-35   0.00000000000000E+00
      1.37405415624161E-17  -2.03390348905958E-18  -2.27093346938167E-20  -7.04696429113905E-19  -1.34388818873812E-17
     -3.45993841932449E-20  -2.87606549007660E-19  -2.03220978649901E-18  -2.27093566206015E-20   0.00000000000000E+00
      1.37262702916388E-17  -6.24215157147169E-19  -1.34388612772180E-17  -1.19368950176342E-18  -2.87573962317598E-19
     -5.83891438835564E-19  -1.34389232278935E-17  -5.84109616547716E-19  -1.34388937573032E-17   0.00000000000000E+00
      2.82272552009409E-17  -5.72976455660702E-18  -1.34943821638333E-18  -1.28872445170834E-18  -2.87557585783335E-19
     -1.29605270056350E-18  -2.87524767829625E-19  -6.25602807290516E-18  -1.34953614972350E-18   0.00000000000000E+00
      1.92446701095562E-18
      1.00000000000000E+06
     -3.72500132032762E-34  -5.14177227233528E-34  -5.57142857142857E-01   2.20581974021137E-35   0.00000000000000E+00
      1.41458408689694E-17  -3.04587789828869E-16  -2.66190228050998E-20  -8.96191047672692E-19  -1.37912750891715E-17
      4.67070199155397E-18  -2.63211783730736E-19  -3.04691308081477E-16  -2.66191596837510E-20   0.00000000000000E+00
      1.40789952748639E-17  -8.84474956183553E-19  -1.37913017021952E-17   5.21387507476101E-18  -2.63182297969129E-19
     -8.89156797274442E-19  -1.37913792217153E-17  -8.89366235029065E-19  -1.37913541919604E-17   0.00000000000000E+00
      2.87548166623414E-17  -3.94294621265020E-18  -1.17208324840741E-18  -9.67591166524744E-19  -2.63158962657415E-19
     -9.74566670099069E-19  -2.63128162773851E-19  -4.09065877002340E-18  -1.17219106685514E-18   0.00000000000000E+00
      1.69862454132029E-18
      1.00000000000000E+06
      1.78780527648978E-34   2.89495694572851E-34  -4.17857142857143E-01  -7.53105467683502E-37   3.57547189331321E-14
      1.46456202006507E-17  -4.26658422008438E-14  -3.04656200251000E-20  -1.15286050525088E-18  -1.41554811592559E-17
      3.41359127188635E-18  -2.46995124081359E-19  -4.26653967569530E-14  -3.04660900769472E-20   3.60514385923282E-14
      1.44732232802798E-17  -1.09783335893423E-18  -1.41555951027080E-17  -4.61365699493204E-19  -2.46970108812969E-19
     -1.10060954303188E-18  -1.41557123466639E-17  -1.10081776684653E-18  -1.41556914878860E-17   0.00000000000000E+00
      2.93731148820361E-17  -3.06614010219840E-18  -1.06171104750063E-18  -7.71254326191302E-19  -2.46936957690562E-19
     -7.43699203593795E-19  -2.46907774817778E-19  -3.06440277590797E-18  -1.06183962232702E-18   0.00000000000000E+00
      1.55492719029489E-18
      1.00000000000000E+06
     -1.79855020563881E-35  -1.07915655793387E-35  -2.78571428571429E-01  -3.15166117740117E-39   5.83410193911405E-12
      1.49437247318293E-17  -5.83231648299412E-12  -3.46171931659087E-20  -1.63461225763039E-18  -1.45623805814619E-17
     -1.09946505893325E-18  -2.35351984134490E-19  -5.83231715784151E-12  -3.46179445580571E-20   5.83380521945485E-12
      1.47265187995314E-17  -1.21039885081206E-18  -1.45625531576576E-17  -1.92786748287161E-19  -2.35329520645978E-19
     -1.28904152610113E-18  -1.45625637307083E-17  -1.28925447744711E-18  -1.45625472224944E-17   0.00000000000000E+00
      3.01035442274197E-17  -2.49151658208122E-18  -9.78433284149882E-19  -6.27209323993717E-19  -2.35272688306603E-19
     -6.44247232960005E-19  -2.35244627514231E-19  -2.52147402967348E-18  -9.78597765732270E-19   1.48359829598058E-16
      1.44926053924910E-18
      1.00000000000000E+06
      3.37630766910736E-34  -2.29124765756019E-33  -1.39285714285714E-01  -3.00250382612466E-39   7.67531715354587E-10
      1.53491280694246E-17  -7.67530674302153E-10  -3.96772011717898E-20  -1.60120172718425E-18  -1.50689519924551E-17
      1.52971427060401E-19  -2.26721817613667E-19  -7.67530674136389E-10  -3.96773098854729E-20   7.67532012074246E-10
      1.53270711720054E-17  -1.49796526961510E-18  -1.50689646391853E-17  -1.82969286111243E-18  -2.26695082556750E-19
     -1.49556573501081E-18  -1.50690851435655E-17  -1.49578665512797E-18  -1.50690742907997E-17   1.48359829598058E-16
      3.10471183831098E-17  -2.06264710230893E-18  -9.08958950399067E-19  -2.06408891264792E-18  -2.26603638287781E-19
     -1.81681486935439E-18  -2.26576426788019E-19  -8.62680053303614E-18  -9.09194496538721E-19   0.00000000000000E+00
      1.36304507580054E-18
      1.00000000000000E+06
     -2.09952121884748E-33  -1.35520387518503E-33  -5.42101086242752E-20  -1.36872895203918E-39   9.42834280479774E-08
      1.57051871757359E-17  -9.42834273987616E-08  -4.50935029224885E-20  -1.58619621665882E-18  -1.58372462302666E-17
     -3.31930818873357E-19  -2.21210339475795E-19  -9.42834273991056E-08  -4.50852503505628E-20   9.42834299766552E-08
      1.58010373278072E-17  -1.33274906834027E-18  -1.58370306823222E-17   1.38165827267719E-19  -2.21177677488722E-19
     -1.79714185341363E-18  -1.58367786094139E-17  -1.79737636107273E-18  -1.58367772707117E-17   0.00000000000000E+00
      3.25213637797398E-17  -1.72506989786229E-18  -8.47807899571472E-19  -1.99894472130792E-18  -2.21006373692641E-19
     -2.41334010568104E-18  -2.20979424532754E-19  -8.55816385581123E-18  -8.48189937807940E-19   0.00000000000000E+00
      1.29010873289306E-18
      1.00000000000000E+06
      3.55129432752460E-34   1.64636983073282E-33   1.39285714285714E-01  -2.17724355719788E-39   9.14176458440785E-06
      1.77828239389939E-17  -9.14176458646256E-06   2.24125643939323E-19   8.26250735425053E-18  -1.80701205081871E-17
      1.14830379455008E-18  -2.21782046330910E-19  -9.14176458648850E-06   2.27534715357623E-19   9.14176458514965E-06
      1.82551149577335E-17  -1.54474884501622E-17  -1.80687954307551E-17   1.02307935945991E-18  -2.21739428732385E-19
     -3.11054987187962E-18  -1.80696430423561E-17  -3.11082418443116E-18  -1.80696584559996E-17   0.00000000000000E+00
      3.69286765595261E-17  -1.45633573813890E-18  -7.89375070458051E-19  -1.85234631488270E-18  -2.21403713833289E-19
     -2.62664068264686E-18  -2.21376249176295E-19  -1.28426362605914E-18  -7.90105766421964E-19   0.00000000000000E+00
      1.23570475296625E-18
      1.00000000000000E+06
      2.63827116397539E-35   4.82957831123864E-35   2.78571428571429E-01   8.66681715600594E-42   1.71593858448193E-04
      1.73288226904780E-17  -1.71593858446392E-04   4.27776234699501E-18   2.43069641768201E-17  -2.66041627899831E-17
      6.44987289389691E-18  -2.45677713369426E-19  -1.71593858447419E-04   4.14631267744822E-18   1.71593858438698E-04
      1.64520452129012E-17  -4.89308035906643E-17  -2.66102411771668E-17   8.63263001200904E-19  -2.45659672422173E-19
     -1.14079266731042E-17  -2.65728796140828E-17  -1.14082656820044E-17  -2.65728347502422E-17   0.00000000000000E+00
      5.38429125309800E-17  -1.12175667119402E-18  -6.97197058046779E-19  -1.51917377368506E-17  -2.44453078811078E-19
      2.34892216419167E-17  -2.44420786785387E-19  -7.83527198308724E-18  -6.99280878760989E-19   1.48359829598058E-16
      1.18927652115780E-18
      1.00000000000000E+06
     -4.62189938929321E-37   7.14092240153690E-37   4.17857142857143E-01  -6.80349472783042E-40   4.33410599483891E-04
      2.13715094844113E-17  -4.33410599473644E-04   9.32838178121342E-18  -5.12647760810088E-17  -3.16958635940889E-17
      3.15915989713758E-19  -3.02823786096638E-19  -4.33410599468404E-04   9.81209196773580E-18   4.33410599485226E-04
      2.25734998774531E-17   1.64772209848897E-16  -3.16859837450290E-17   2.98357997068092E-18  -3.02729291108854E-19
     -1.48855939155534E-17  -3.16911838841024E-17  -1.48857668807641E-17  -3.16909140609269E-17   0.00000000000000E+00
      6.39349636081174E-17  -6.82421254442061E-19  -5.52870616134587E-19   5.17279200266048E-15  -3.00127805134111E-19
      5.40391023248582E-15  -3.00085123985973E-19   7.87747278858980E-17  -5.58190365361549E-19   0.00000000000000E+00
      1.15530935104691E-18
      1.00000000000000E+06
      5.40924373292257E-35  -5.54868140962617E-35   5.57142857142857E-01   1.96786897996277E-38   6.36096647015038E-04
      1.70252555967368E-17  -6.36096647147767E-04   9.10076053336720E-18  -6.89549931981361E-16  -3.39062685774456E-17
     -6.47487553592533E-18  -3.49833452640382E-19  -6.36096647069947E-04   1.79018780435188E-17   6.36096647081800E-04
      3.18771624638996E-17   1.78342409902296E-16  -3.38010391908295E-17   3.22125913229832E-18  -3.49253584012143E-19
     -1.55895492208181E-17  -3.38735455933402E-17  -1.55895642255724E-17  -3.38730460740379E-17   0.00000000000000E+00
      6.81855953765946E-17  -3.79636542922014E-19  -4.39003957079701E-19  -3.42666907774661E-15  -3.46919586251364E-19
     -3.41480413523414E-15  -3.46868024428402E-19  -4.07645810232246E-17  -4.44503071845077E-19   0.00000000000000E+00
      1.13847137351756E-18
      1.00000000000000E+06
     -1.28107426824187E-34   2.38763271570555E-34   6.96428571428571E-01   3.98434818607265E-38   7.89981699949684E-04
      1.91883431289877E-17  -7.89981700019987E-04   1.15152374318922E-17  -8.51506499175837E-17  -3.50954291376881E-17
     -2.68411775048880E-18  -3.71805581375368E-19  -7.89981699948208E-04   1.77890230516360E-17   7.89981699987219E-04
      2.79277110038137E-17   1.62263948814070E-16  -3.50417099619166E-17   1.99620784272656E-18  -3.71525356244767E-19
     -1.56863897734600E-17  -3.50806898816310E-17  -1.56862431181299E-17  -3.50799276901203E-17   0.00000000000000E+00
      7.05379448940172E-17  -2.35784237210422E-19  -3.77327188444416E-19   6.08541281675428E-15  -3.69718452091358E-19
      6.27992500709009E-15  -3.69660324555397E-19   4.77007897991947E-17  -3.81369342281929E-19   0.00000000000000E+00
      1.12053536578131E-18
      1.00000000000000E+06
      9.24290591860455E-37   5.94984324390508E-36   8.35714285714286E-01  -1.87643703397616E-38   9.11745014988975E-04
      2.36682569745769E-17  -9.11745014946252E-04   1.58335047206338E-17   7.13683397462815E-17  -3.59047420205744E-17
     -2.19704305363487E-19  -3.83733575706715E-19  -9.11745014967099E-04   1.50709189659847E-17   9.11745014969836E-04
      2.27252771886332E-17  -3.10176336361722E-17  -3.59090626833660E-17  -7.18901598108216E-19  -3.83687900388910E-19
     -1.56900297032501E-17  -3.59160385745108E-17  -1.56897693107016E-17  -3.59150954939341E-17   0.00000000000000E+00
      7.21699965405343E-17  -1.53567146661944E-19  -3.38864480256725E-19   1.31538346175558E-15  -3.82351066421506E-19
      1.30237843607416E-15  -3.82288340337248E-19   8.60608959129025E-18  -3.41686124498876E-19   0.00000000000000E+00
      1.11079278873456E-18
      1.00000000000000E+06
     -8.73208561233096E-33   1.03068174537978E-33   9.75000000000000E-01   1.66380885276091E-38   1.01166325555556E-03
      2.04126370543313E-17  -1.01166325533302E-03   1.37644546348473E-17   5.53177091381385E-16  -3.65857353218226E-17
      1.27792544591051E-18  -3.92521233533770E-19  -1.01166325534812E-03   1.44588623852680E-17   1.01166325553138E-03
      2.12136957621246E-17   4.89131507465035E-16  -3.65807404715909E-17   1.28974993600815E-18  -3.92443436743913E-19
     -1.57022508358195E-17  -3.65794004982994E-17  -1.57019134702509E-17  -3.65783086553195E-17   0.00000000000000E+00
      7.34680989120260E-17  -9.65732022822373E-20  -3.10397053085349E-19   6.87504761223366E-15  -3.91504392064057E-19
      6.87688397893064E-15  -3.91438662778506E-19   5.15396745097454E-17  -3.12380266920612E-19   0.00000000000000E+00
      1.09684109103140E-18
}
